 Output coordinates in angstroms (scale by  1.889725989 to convert to a.u.)

  No.       Tag          Charge          X              Y              Z
 ---- ---------------- ---------- -------------- -------------- --------------
    1 Be                   4.0000     0.00000000     0.00000000    -0.94160215
    2 F                    9.0000     0.00000000     0.00000000     0.41848985

         Total DFT energy =     -114.556299969203

                    DFT Final Alpha Molecular Orbital Analysis
                    ------------------------------------------

 Vector    1  Occ=1.000000D+00  E=-2.441180D+01

 Vector   59  Occ=0.000000D+00  E= 7.548193D+00

 Vector   60  Occ=0.000000D+00  E= 7.738755D+00

 Vector   61  Occ=0.000000D+00  E= 8.197182D+00

 Vector   62  Occ=0.000000D+00  E= 8.448562D+00

 Vector   63  Occ=0.000000D+00  E= 8.448562D+00

 Vector   64  Occ=0.000000D+00  E= 8.448897D+00

 Vector   65  Occ=0.000000D+00  E= 8.448897D+00

 Vector   66  Occ=0.000000D+00  E= 8.803090D+00

 Vector   67  Occ=0.000000D+00  E= 8.959828D+00

 Vector   68  Occ=0.000000D+00  E= 2.240632D+01

 Vector   69  Occ=0.000000D+00  E= 9.560272D+01

 Vector    1  Occ=1.000000D+00  E=-2.441195D+01

 Vector    2  Occ=1.000000D+00  E=-4.056224D+00

 Vector    3  Occ=1.000000D+00  E=-1.239628D+00

 Vector    4  Occ=1.000000D+00  E=-5.668246D-01

 Vector    5  Occ=1.000000D+00  E=-5.214837D-01

 Vector    6  Occ=1.000000D+00  E=-5.214837D-01

 Vector    7  Occ=0.000000D+00  E=-2.012882D-02

 Vector    8  Occ=0.000000D+00  E= 4.789371D-02

 Vector    9  Occ=0.000000D+00  E= 4.789371D-02

 Vector   10  Occ=0.000000D+00  E= 5.897242D-02

 Vector   11  Occ=0.000000D+00  E= 8.829667D-02

 Vector   12  Occ=0.000000D+00  E= 1.289023D-01

 Vector   13  Occ=0.000000D+00  E= 1.289023D-01

 Vector   14  Occ=0.000000D+00  E= 1.684724D-01

 Vector   15  Occ=0.000000D+00  E= 1.935920D-01

 Vector   16  Occ=0.000000D+00  E= 1.935920D-01

 Vector   17  Occ=0.000000D+00  E= 2.013074D-01

 Vector   18  Occ=0.000000D+00  E= 3.124184D-01

 Vector   19  Occ=0.000000D+00  E= 3.606949D-01

 Vector   20  Occ=0.000000D+00  E= 3.606949D-01

 Vector   21  Occ=0.000000D+00  E= 4.036278D-01

 Vector   22  Occ=0.000000D+00  E= 4.421970D-01

 Vector   23  Occ=0.000000D+00  E= 4.421974D-01

 Vector   24  Occ=0.000000D+00  E= 4.996824D-01

 Vector   25  Occ=0.000000D+00  E= 6.022973D-01

 Vector   26  Occ=0.000000D+00  E= 6.022973D-01

 Vector   27  Occ=0.000000D+00  E= 6.654096D-01

 Vector   28  Occ=0.000000D+00  E= 6.654096D-01

 Vector   29  Occ=0.000000D+00  E= 6.789334D-01

 Vector   30  Occ=0.000000D+00  E= 7.441742D-01

 Vector   31  Occ=0.000000D+00  E= 7.441744D-01

 Vector   32  Occ=0.000000D+00  E= 7.544588D-01

 Vector   33  Occ=0.000000D+00  E= 9.162607D-01

 Vector   34  Occ=0.000000D+00  E= 1.019984D+00

 Vector   35  Occ=0.000000D+00  E= 1.019984D+00

 Vector   36  Occ=0.000000D+00  E= 1.071613D+00

 Vector   37  Occ=0.000000D+00  E= 1.300127D+00

 Vector   38  Occ=0.000000D+00  E= 1.660203D+00

 Vector   39  Occ=0.000000D+00  E= 2.273702D+00

 Vector   40  Occ=0.000000D+00  E= 2.273702D+00

 Vector   41  Occ=0.000000D+00  E= 2.295936D+00

 Vector   42  Occ=0.000000D+00  E= 2.295936D+00

 Vector   43  Occ=0.000000D+00  E= 2.649490D+00

 Vector   44  Occ=0.000000D+00  E= 2.784702D+00

 Vector   45  Occ=0.000000D+00  E= 2.784702D+00

 Vector   46  Occ=0.000000D+00  E= 2.879792D+00

 Vector   47  Occ=0.000000D+00  E= 3.822217D+00

 Vector   48  Occ=0.000000D+00  E= 5.546923D+00

 Vector   49  Occ=0.000000D+00  E= 5.546923D+00

 Vector   50  Occ=0.000000D+00  E= 6.339252D+00

 Vector   51  Occ=0.000000D+00  E= 6.881391D+00

 Vector   52  Occ=0.000000D+00  E= 6.881392D+00

 Vector   53  Occ=0.000000D+00  E= 6.897444D+00

 Vector   54  Occ=0.000000D+00  E= 6.897444D+00

 Vector   55  Occ=0.000000D+00  E= 6.918629D+00

 Vector   56  Occ=0.000000D+00  E= 6.918629D+00

 Vector   57  Occ=0.000000D+00  E= 7.065076D+00

 Vector   58  Occ=0.000000D+00  E= 7.547170D+00

 Vector   59  Occ=0.000000D+00  E= 7.547170D+00

 Vector   60  Occ=0.000000D+00  E= 7.747289D+00

 Vector   61  Occ=0.000000D+00  E= 8.208514D+00

 Vector   62  Occ=0.000000D+00  E= 8.446485D+00

 Vector   63  Occ=0.000000D+00  E= 8.446485D+00

 Vector   64  Occ=0.000000D+00  E= 8.449219D+00

 Vector   65  Occ=0.000000D+00  E= 8.449219D+00

 Vector   66  Occ=0.000000D+00  E= 8.806199D+00

 Vector   67  Occ=0.000000D+00  E= 8.960692D+00

 Vector   68  Occ=0.000000D+00  E= 2.240582D+01

 Vector   69  Occ=0.000000D+00  E= 9.560257D+01

     Multipole analysis of the density
     ---------------------------------

     L   x y z        total         alpha         beta         nuclear
     -   - - -        -----         -----         ----         -------
     0   0 0 0     -0.000000     -7.000000     -6.000000     13.000000

     1   1 0 0     -0.000000     -0.000000     -0.000000      0.000000
     1   0 1 0     -0.000000      0.000000     -0.000000      0.000000
     1   0 0 1     -0.437980      1.306626     -1.744607      0.000000

     2   2 0 0     -7.464695     -4.993670     -2.471026      0.000000
     2   1 1 0     -0.000000     -0.000000     -0.000000      0.000000
     2   1 0 1     -0.000000     -0.000000     -0.000000      0.000000
     2   0 2 0     -7.464695     -4.993670     -2.471026      0.000000
     2   0 1 1     -0.000000     -0.000000     -0.000000      0.000000

  Root   1         a              0.153710912 a.u.                4.1827 eV
     Dipole Oscillator Strength                    0.1883330708
  Root   2         a              0.153710912 a.u.                4.1827 eV
     Dipole Oscillator Strength                    0.1883330696
  Root   3         a              0.226871071 a.u.                6.1735 eV
     Dipole Oscillator Strength                    0.1711727330
  Root   4         a              0.239209045 a.u.                6.5092 eV
     Dipole Oscillator Strength                    0.0001139875
  Root   5         a              0.264177901 a.u.                7.1886 eV
     Dipole Oscillator Strength                    0.0070027026
  Root   6         a              0.264177901 a.u.                7.1886 eV
     Dipole Oscillator Strength                    0.0070027045
  Root   7         a              0.289022363 a.u.                7.8647 eV
     Dipole Oscillator Strength                    0.0269521110
  Root   8         a              0.289022377 a.u.                7.8647 eV
     Dipole Oscillator Strength                    0.0269521164
  Root   9         a              0.322209406 a.u.                8.7678 eV
     Dipole Oscillator Strength                    0.0599623112
  Root  10         a              0.331184197 a.u.                9.0120 eV
     Dipole Oscillator Strength                    0.0016749993
 Total times  cpu:       64.4s     wall:       77.1s
