 Output coordinates in angstroms (scale by  1.889725989 to convert to a.u.)

  No.       Tag          Charge          X              Y              Z
 ---- ---------------- ---------- -------------- -------------- --------------
    1 B                    5.0000     0.00000000     0.00000000     0.14640257
    2 H                    1.0000    -1.06427600     0.00000000    -0.36600643
    3 H                    1.0000     1.06427600     0.00000000    -0.36600643

         Total DFT energy =      -25.909927420525

                    DFT Final Alpha Molecular Orbital Analysis
                    ------------------------------------------

 Vector    1  Occ=1.000000D+00  E=-6.762459D+00

 Vector   43  Occ=0.000000D+00  E= 1.946228D+00

 Vector   44  Occ=0.000000D+00  E= 1.975113D+00

 Vector   45  Occ=0.000000D+00  E= 1.976386D+00

 Vector   46  Occ=0.000000D+00  E= 1.989666D+00

 Vector   47  Occ=0.000000D+00  E= 1.997168D+00

 Vector   48  Occ=0.000000D+00  E= 2.079202D+00

 Vector   49  Occ=0.000000D+00  E= 2.116302D+00

 Vector   50  Occ=0.000000D+00  E= 2.236589D+00

 Vector   51  Occ=0.000000D+00  E= 2.265156D+00

 Vector   52  Occ=0.000000D+00  E= 2.294250D+00

 Vector   53  Occ=0.000000D+00  E= 2.483909D+00

 Vector   54  Occ=0.000000D+00  E= 2.507408D+00

 Vector   55  Occ=0.000000D+00  E= 2.754705D+00

 Vector   56  Occ=0.000000D+00  E= 3.050264D+00

 Vector   57  Occ=0.000000D+00  E= 3.077844D+00

 Vector   58  Occ=0.000000D+00  E= 3.667121D+00

 Vector   59  Occ=0.000000D+00  E= 3.823780D+00

 Vector   60  Occ=0.000000D+00  E= 4.924610D+00

 Vector   61  Occ=0.000000D+00  E= 2.123397D+01

 Vector    1  Occ=1.000000D+00  E=-6.752244D+00

 Vector    2  Occ=1.000000D+00  E=-6.094191D-01

 Vector    3  Occ=1.000000D+00  E=-4.840974D-01

 Vector    4  Occ=0.000000D+00  E= 1.857320D-02

 Vector    5  Occ=0.000000D+00  E= 2.608195D-02

 Vector    6  Occ=0.000000D+00  E= 4.304184D-02

 Vector    7  Occ=0.000000D+00  E= 1.362128D-01

 Vector    8  Occ=0.000000D+00  E= 1.481885D-01

 Vector    9  Occ=0.000000D+00  E= 1.688272D-01

 Vector   10  Occ=0.000000D+00  E= 1.698934D-01

 Vector   11  Occ=0.000000D+00  E= 1.704036D-01

 Vector   12  Occ=0.000000D+00  E= 1.779708D-01

 Vector   13  Occ=0.000000D+00  E= 1.851176D-01

 Vector   14  Occ=0.000000D+00  E= 1.937716D-01

 Vector   15  Occ=0.000000D+00  E= 2.135032D-01

 Vector   16  Occ=0.000000D+00  E= 2.955834D-01

 Vector   17  Occ=0.000000D+00  E= 3.311561D-01

 Vector   18  Occ=0.000000D+00  E= 3.547880D-01

 Vector   19  Occ=0.000000D+00  E= 3.561674D-01

 Vector   20  Occ=0.000000D+00  E= 3.620052D-01

 Vector   21  Occ=0.000000D+00  E= 3.765320D-01

 Vector   22  Occ=0.000000D+00  E= 4.430217D-01

 Vector   23  Occ=0.000000D+00  E= 4.471299D-01

 Vector   24  Occ=0.000000D+00  E= 4.645603D-01

 Vector   25  Occ=0.000000D+00  E= 6.084414D-01

 Vector   26  Occ=0.000000D+00  E= 6.322215D-01

 Vector   27  Occ=0.000000D+00  E= 6.463032D-01

 Vector   28  Occ=0.000000D+00  E= 6.564986D-01

 Vector   29  Occ=0.000000D+00  E= 6.986734D-01

 Vector   30  Occ=0.000000D+00  E= 8.250216D-01

 Vector   31  Occ=0.000000D+00  E= 8.761941D-01

 Vector   32  Occ=0.000000D+00  E= 8.858381D-01

 Vector   33  Occ=0.000000D+00  E= 1.006814D+00

 Vector   34  Occ=0.000000D+00  E= 1.051892D+00

 Vector   35  Occ=0.000000D+00  E= 1.117936D+00

 Vector   36  Occ=0.000000D+00  E= 1.612801D+00

 Vector   37  Occ=0.000000D+00  E= 1.636141D+00

 Vector   38  Occ=0.000000D+00  E= 1.659762D+00

 Vector   39  Occ=0.000000D+00  E= 1.814561D+00

 Vector   40  Occ=0.000000D+00  E= 1.842981D+00

 Vector   41  Occ=0.000000D+00  E= 1.906370D+00

 Vector   42  Occ=0.000000D+00  E= 1.939430D+00

 Vector   43  Occ=0.000000D+00  E= 1.994036D+00

 Vector   44  Occ=0.000000D+00  E= 2.008163D+00

 Vector   45  Occ=0.000000D+00  E= 2.011958D+00

 Vector   46  Occ=0.000000D+00  E= 2.025631D+00

 Vector   47  Occ=0.000000D+00  E= 2.037534D+00

 Vector   48  Occ=0.000000D+00  E= 2.097478D+00

 Vector   49  Occ=0.000000D+00  E= 2.143823D+00

 Vector   50  Occ=0.000000D+00  E= 2.281198D+00

 Vector   51  Occ=0.000000D+00  E= 2.284107D+00

 Vector   52  Occ=0.000000D+00  E= 2.339901D+00

 Vector   53  Occ=0.000000D+00  E= 2.490590D+00

 Vector   54  Occ=0.000000D+00  E= 2.526239D+00

 Vector   55  Occ=0.000000D+00  E= 2.780181D+00

 Vector   56  Occ=0.000000D+00  E= 3.064103D+00

 Vector   57  Occ=0.000000D+00  E= 3.086636D+00

 Vector   58  Occ=0.000000D+00  E= 3.698898D+00

 Vector   59  Occ=0.000000D+00  E= 3.835138D+00

 Vector   60  Occ=0.000000D+00  E= 4.952373D+00

 Vector   61  Occ=0.000000D+00  E= 2.125479D+01

     Multipole analysis of the density
     ---------------------------------

     L   x y z        total         alpha         beta         nuclear
     -   - - -        -----         -----         ----         -------
     0   0 0 0     -0.000000     -4.000000     -3.000000      7.000000

     1   1 0 0     -0.000000      0.000000     -0.000000      0.000000
     1   0 1 0      0.000000      0.000000     -0.000000      0.000000
     1   0 0 1     -0.204125     -0.640771      0.436646      0.000000

     2   2 0 0     -6.130358     -7.694917     -6.525212      8.089771
     2   1 1 0      0.000000      0.000000      0.000000      0.000000
     2   1 0 1      0.000000      0.000000      0.000000      0.000000
     2   0 2 0     -4.960265     -3.098835     -1.861430      0.000000
     2   0 1 1      0.000000      0.000000     -0.000000      0.000000

  Root   1         a              0.047150220 a.u.                1.2830 eV
     Dipole Oscillator Strength                    0.0034847423
  Root   2         a              0.197483554 a.u.                5.3738 eV
     Dipole Oscillator Strength                    0.0000000000
  Root   3         a              0.213750935 a.u.                5.8165 eV
     Dipole Oscillator Strength                    0.0606858479
  Root   4         a              0.234995315 a.u.                6.3946 eV
     Dipole Oscillator Strength                    0.0000000000
  Root   5         a              0.242489127 a.u.                6.5985 eV
     Dipole Oscillator Strength                    0.0007319631
  Root   6         a              0.275177190 a.u.                7.4880 eV
     Dipole Oscillator Strength                    0.0146430528
  Root   7         a              0.279124675 a.u.                7.5954 eV
     Dipole Oscillator Strength                    0.0242429318
  Root   8         a              0.291738453 a.u.                7.9386 eV
     Dipole Oscillator Strength                    0.1249218145
  Root   9         a              0.300565990 a.u.                8.1788 eV
     Dipole Oscillator Strength                    0.0247894002
  Root  10         a              0.309948518 a.u.                8.4341 eV
     Dipole Oscillator Strength                    0.0000000000
 Total times  cpu:       67.3s     wall:       78.2s
