 Output coordinates in angstroms (scale by  1.889725989 to convert to a.u.)

  No.       Tag          Charge          X              Y              Z
 ---- ---------------- ---------- -------------- -------------- --------------
    1 C                    6.0000     0.00000000     0.00000000    -0.62941308
    2 N                    7.0000     0.00000000     0.00000000     0.53949692

         Total DFT energy =      -92.660404346515

                    DFT Final Alpha Molecular Orbital Analysis
                    ------------------------------------------

 Vector    1  Occ=1.000000D+00  E=-1.425134D+01

 Vector    7  Occ=0.000000D+00  E=-1.463424D-01

 Vector    8  Occ=0.000000D+00  E= 6.815835D-02

 Vector    9  Occ=0.000000D+00  E= 9.943479D-02

 Vector   10  Occ=0.000000D+00  E= 9.943479D-02

 Vector   11  Occ=0.000000D+00  E= 1.222562D-01

 Vector   12  Occ=0.000000D+00  E= 2.352893D-01

 Vector   13  Occ=0.000000D+00  E= 2.425546D-01

 Vector   14  Occ=0.000000D+00  E= 2.425546D-01

 Vector   15  Occ=0.000000D+00  E= 2.671164D-01

 Vector   16  Occ=0.000000D+00  E= 2.671164D-01

 Vector   17  Occ=0.000000D+00  E= 2.764403D-01

 Vector   18  Occ=0.000000D+00  E= 3.070989D-01

 Vector   19  Occ=0.000000D+00  E= 3.070989D-01

 Vector   20  Occ=0.000000D+00  E= 3.481567D-01

 Vector   21  Occ=0.000000D+00  E= 4.206572D-01

 Vector   22  Occ=0.000000D+00  E= 4.813605D-01

 Vector   23  Occ=0.000000D+00  E= 4.813606D-01

 Vector   24  Occ=0.000000D+00  E= 4.935509D-01

 Vector   25  Occ=0.000000D+00  E= 4.935509D-01

 Vector   26  Occ=0.000000D+00  E= 5.752678D-01

 Vector   27  Occ=0.000000D+00  E= 6.720129D-01

 Vector   28  Occ=0.000000D+00  E= 7.414057D-01

 Vector   29  Occ=0.000000D+00  E= 7.414057D-01

 Vector   30  Occ=0.000000D+00  E= 7.785648D-01

 Vector   31  Occ=0.000000D+00  E= 8.486123D-01

 Vector   32  Occ=0.000000D+00  E= 9.178730D-01

 Vector   33  Occ=0.000000D+00  E= 9.178730D-01

 Vector   34  Occ=0.000000D+00  E= 1.038710D+00

 Vector   35  Occ=0.000000D+00  E= 1.038710D+00

 Vector   36  Occ=0.000000D+00  E= 1.043854D+00

 Vector   37  Occ=0.000000D+00  E= 1.308111D+00

 Vector   38  Occ=0.000000D+00  E= 1.328516D+00

 Vector   39  Occ=0.000000D+00  E= 1.328516D+00

 Vector   40  Occ=0.000000D+00  E= 1.454120D+00

 Vector   41  Occ=0.000000D+00  E= 1.454120D+00

 Vector   42  Occ=0.000000D+00  E= 1.520189D+00

 Vector   43  Occ=0.000000D+00  E= 1.636783D+00

 Vector   44  Occ=0.000000D+00  E= 1.636783D+00

 Vector   45  Occ=0.000000D+00  E= 1.690472D+00

 Vector   46  Occ=0.000000D+00  E= 1.956294D+00

 Vector   47  Occ=0.000000D+00  E= 2.058181D+00

 Vector   48  Occ=0.000000D+00  E= 2.058181D+00

 Vector   49  Occ=0.000000D+00  E= 2.322084D+00

 Vector   50  Occ=0.000000D+00  E= 2.734293D+00

 Vector   51  Occ=0.000000D+00  E= 2.734293D+00

 Vector   52  Occ=0.000000D+00  E= 2.830184D+00

 Vector   53  Occ=0.000000D+00  E= 2.855115D+00

 Vector   54  Occ=0.000000D+00  E= 2.855115D+00

 Vector   55  Occ=0.000000D+00  E= 3.051134D+00

 Vector   56  Occ=0.000000D+00  E= 3.051134D+00

 Vector   57  Occ=0.000000D+00  E= 3.157918D+00

 Vector   58  Occ=0.000000D+00  E= 3.157918D+00

 Vector   59  Occ=0.000000D+00  E= 3.260719D+00

 Vector   60  Occ=0.000000D+00  E= 3.260719D+00

 Vector   61  Occ=0.000000D+00  E= 3.298902D+00

 Vector   62  Occ=0.000000D+00  E= 3.383959D+00

 Vector   63  Occ=0.000000D+00  E= 3.479075D+00

 Vector   64  Occ=0.000000D+00  E= 3.479075D+00

 Vector   65  Occ=0.000000D+00  E= 3.769584D+00

 Vector   66  Occ=0.000000D+00  E= 4.009505D+00

 Vector   67  Occ=0.000000D+00  E= 4.009505D+00

 Vector   68  Occ=0.000000D+00  E= 4.216611D+00

 Vector   69  Occ=0.000000D+00  E= 4.529664D+00

 Vector   70  Occ=0.000000D+00  E= 4.529664D+00

 Vector   71  Occ=0.000000D+00  E= 4.687104D+00

 Vector   72  Occ=0.000000D+00  E= 4.687104D+00

 Vector   73  Occ=0.000000D+00  E= 4.746450D+00

 Vector   74  Occ=0.000000D+00  E= 4.746450D+00

 Vector   75  Occ=0.000000D+00  E= 4.987571D+00

 Vector   76  Occ=0.000000D+00  E= 5.004432D+00

 Vector   77  Occ=0.000000D+00  E= 5.004432D+00

 Vector   78  Occ=0.000000D+00  E= 5.111220D+00

 Vector   79  Occ=0.000000D+00  E= 5.675419D+00

 Vector   80  Occ=0.000000D+00  E= 5.675419D+00

 Vector   81  Occ=0.000000D+00  E= 6.253329D+00

 Vector   82  Occ=0.000000D+00  E= 6.721790D+00

 Vector   83  Occ=0.000000D+00  E= 8.109711D+00

 Vector   84  Occ=0.000000D+00  E= 1.205569D+01

 Vector   85  Occ=0.000000D+00  E= 3.467525D+01

 Vector   86  Occ=0.000000D+00  E= 5.163364D+01

     Multipole analysis of the density
     ---------------------------------

     L   x y z        total         alpha         beta         nuclear
     -   - - -        -----         -----         ----         -------
     0   0 0 0     -0.000000     -7.000000     -6.000000     13.000000

     1   1 0 0     -0.000000      0.000000     -0.000000      0.000000
     1   0 1 0     -0.000000      0.000000     -0.000000      0.000000
     1   0 0 1     -0.650777      0.546191     -1.196967     -0.000000

     2   2 0 0     -8.156668     -4.441522     -3.715146      0.000000
     2   1 1 0     -0.000000     -0.000000     -0.000000      0.000000
     2   1 0 1      0.000000      0.000000      0.000000      0.000000
     2   0 2 0     -8.156668     -4.441522     -3.715146      0.000000
     2   0 1 1      0.000000      0.000000      0.000000      0.000000

  Root   1         a              0.054200165 a.u.                1.4749 eV
     Dipole Oscillator Strength                    0.0036539026
  Root   2         a              0.054200165 a.u.                1.4749 eV
     Dipole Oscillator Strength                    0.0036538591
  Root   3         a              0.130125611 a.u.                3.5409 eV
     Dipole Oscillator Strength                    0.0327610587
  Root   4         a              0.238325401 a.u.                6.4852 eV
     Dipole Oscillator Strength                    0.0032923545
  Root   5         a              0.256106845 a.u.                6.9690 eV
     Dipole Oscillator Strength                    0.0000000000
  Root   6         a              0.256107607 a.u.                6.9690 eV
     Dipole Oscillator Strength                    0.0000000000
  Root   7         a              0.284990733 a.u.                7.7550 eV
     Dipole Oscillator Strength                    0.0000000000
  Root   8         a              0.304795998 a.u.                8.2939 eV
     Dipole Oscillator Strength                    0.0009930383
  Root   9         a              0.304795998 a.u.                8.2939 eV
     Dipole Oscillator Strength                    0.0009924607
  Root  10         a              0.311979542 a.u.                8.4894 eV
     Dipole Oscillator Strength                    0.0000000000
 Total times  cpu:      123.8s     wall:      144.1s
