 Output coordinates in angstroms (scale by  1.889725989 to convert to a.u.)

  No.       Tag          Charge          X              Y              Z
 ---- ---------------- ---------- -------------- -------------- --------------
    1 C                    6.0000     0.70256313     0.18635888     0.00000000
    2 F                    9.0000    -0.59211388    -0.02994113     0.00000000
    3 H                    1.0000     1.11364613    -0.84868313     0.00000000

         Total DFT energy =     -138.360203335635

                       DFT Final Molecular Orbital Analysis
                       ------------------------------------

 Vector    1  Occ=2.000000D+00  E=-2.452463D+01

 Vector   19  Occ=0.000000D+00  E= 2.890311D-01

 Vector   20  Occ=0.000000D+00  E= 3.185938D-01

 Vector   21  Occ=0.000000D+00  E= 3.300545D-01

 Vector   22  Occ=0.000000D+00  E= 3.501750D-01

 Vector   23  Occ=0.000000D+00  E= 3.742247D-01

 Vector   24  Occ=0.000000D+00  E= 3.753956D-01

 Vector   25  Occ=0.000000D+00  E= 4.090709D-01

 Vector   26  Occ=0.000000D+00  E= 4.338071D-01

 Vector   27  Occ=0.000000D+00  E= 4.684707D-01

 Vector   28  Occ=0.000000D+00  E= 4.800832D-01

 Vector   29  Occ=0.000000D+00  E= 6.331380D-01

 Vector   30  Occ=0.000000D+00  E= 6.480638D-01

 Vector   31  Occ=0.000000D+00  E= 6.677785D-01

 Vector   32  Occ=0.000000D+00  E= 6.709192D-01

 Vector   33  Occ=0.000000D+00  E= 6.855389D-01

 Vector   34  Occ=0.000000D+00  E= 7.101135D-01

 Vector   35  Occ=0.000000D+00  E= 7.760099D-01

 Vector   36  Occ=0.000000D+00  E= 8.070011D-01

 Vector   37  Occ=0.000000D+00  E= 8.873798D-01

 Vector   38  Occ=0.000000D+00  E= 9.087117D-01

 Vector   39  Occ=0.000000D+00  E= 9.230408D-01

 Vector   40  Occ=0.000000D+00  E= 1.045190D+00

 Vector   41  Occ=0.000000D+00  E= 1.113382D+00

 Vector   42  Occ=0.000000D+00  E= 1.131411D+00

 Vector   43  Occ=0.000000D+00  E= 1.174990D+00

 Vector   44  Occ=0.000000D+00  E= 1.226855D+00

 Vector   45  Occ=0.000000D+00  E= 1.340090D+00

 Vector   46  Occ=0.000000D+00  E= 1.521155D+00

 Vector   47  Occ=0.000000D+00  E= 1.545167D+00

 Vector   48  Occ=0.000000D+00  E= 1.576043D+00

 Vector   49  Occ=0.000000D+00  E= 1.895818D+00

 Vector   50  Occ=0.000000D+00  E= 1.911238D+00

 Vector   51  Occ=0.000000D+00  E= 2.099363D+00

 Vector   52  Occ=0.000000D+00  E= 2.242178D+00

 Vector   53  Occ=0.000000D+00  E= 2.243964D+00

 Vector   54  Occ=0.000000D+00  E= 2.272442D+00

 Vector   55  Occ=0.000000D+00  E= 2.378978D+00

 Vector   56  Occ=0.000000D+00  E= 2.431518D+00

 Vector   57  Occ=0.000000D+00  E= 2.590839D+00

 Vector   58  Occ=0.000000D+00  E= 2.717025D+00

 Vector   59  Occ=0.000000D+00  E= 2.754275D+00

 Vector   60  Occ=0.000000D+00  E= 2.822535D+00

 Vector   61  Occ=0.000000D+00  E= 2.849597D+00

 Vector   62  Occ=0.000000D+00  E= 2.904552D+00

 Vector   63  Occ=0.000000D+00  E= 3.118025D+00

 Vector   64  Occ=0.000000D+00  E= 3.153954D+00

 Vector   65  Occ=0.000000D+00  E= 3.179902D+00

 Vector   66  Occ=0.000000D+00  E= 3.180638D+00

 Vector   67  Occ=0.000000D+00  E= 3.266550D+00

 Vector   68  Occ=0.000000D+00  E= 3.289820D+00

 Vector   69  Occ=0.000000D+00  E= 3.372281D+00

 Vector   70  Occ=0.000000D+00  E= 3.375919D+00

 Vector   71  Occ=0.000000D+00  E= 3.490967D+00

 Vector   72  Occ=0.000000D+00  E= 3.555443D+00

 Vector   73  Occ=0.000000D+00  E= 3.649316D+00

 Vector   74  Occ=0.000000D+00  E= 3.731825D+00

 Vector   75  Occ=0.000000D+00  E= 3.769526D+00

 Vector   76  Occ=0.000000D+00  E= 4.031480D+00

 Vector   77  Occ=0.000000D+00  E= 4.522159D+00

 Vector   78  Occ=0.000000D+00  E= 4.933502D+00

 Vector   79  Occ=0.000000D+00  E= 6.853742D+00

 Vector   80  Occ=0.000000D+00  E= 6.854449D+00

 Vector   81  Occ=0.000000D+00  E= 6.962438D+00

 Vector   82  Occ=0.000000D+00  E= 6.986668D+00

 Vector   83  Occ=0.000000D+00  E= 7.307306D+00

 Vector   84  Occ=0.000000D+00  E= 7.349105D+00

 Vector   85  Occ=0.000000D+00  E= 7.368969D+00

 Vector   86  Occ=0.000000D+00  E= 7.575260D+00

 Vector   87  Occ=0.000000D+00  E= 7.634670D+00

 Vector   88  Occ=0.000000D+00  E= 7.945375D+00

 Vector   89  Occ=0.000000D+00  E= 8.342144D+00

 Vector   90  Occ=0.000000D+00  E= 8.442330D+00

 Vector   91  Occ=0.000000D+00  E= 8.472092D+00

 Vector   92  Occ=0.000000D+00  E= 8.787342D+00

 Vector   93  Occ=0.000000D+00  E= 8.840962D+00

 Vector   94  Occ=0.000000D+00  E= 8.847724D+00

 Vector   95  Occ=0.000000D+00  E= 9.723720D+00

 Vector   96  Occ=0.000000D+00  E= 2.233615D+01

 Vector   97  Occ=0.000000D+00  E= 3.466589D+01

 Vector   98  Occ=0.000000D+00  E= 9.552328D+01

     Multipole analysis of the density
     ---------------------------------

     L   x y z        total         alpha         beta         nuclear
     -   - - -        -----         -----         ----         -------
     0   0 0 0     -0.000000     -8.000000     -8.000000     16.000000

     1   1 0 0      0.002187      0.001093      0.001093     -0.000000
     1   0 1 0     -0.618202     -0.309101     -0.309101      0.000000
     1   0 0 1     -0.000000     -0.000000     -0.000000      0.000000

     2   2 0 0     -9.022474    -17.647695    -17.647695     26.272916
     2   1 1 0     -1.450240     -0.725116     -0.725116     -0.000009
     2   1 0 1      0.000000      0.000000      0.000000      0.000000
     2   0 2 0     -9.352734     -6.348891     -6.348891      3.345048
     2   0 1 1      0.000000      0.000000      0.000000      0.000000

  Root   1 singlet a              0.086558157 a.u.                2.3554 eV
     Dipole Oscillator Strength                    0.0100805930
  Root   2 singlet a              0.247840098 a.u.                6.7441 eV
     Dipole Oscillator Strength                    0.0689725426
  Root   3 singlet a              0.284564396 a.u.                7.7434 eV
     Dipole Oscillator Strength                    0.0271108798
  Root   4 singlet a              0.304195229 a.u.                8.2776 eV
     Dipole Oscillator Strength                    0.0324339413
  Root   5 singlet a              0.321985605 a.u.                8.7617 eV
     Dipole Oscillator Strength                    0.0307354209
  Root   6 singlet a              0.322868869 a.u.                8.7857 eV
     Dipole Oscillator Strength                    0.0056469217
  Root   7 singlet a              0.350176106 a.u.                9.5288 eV
     Dipole Oscillator Strength                    0.0530831065
  Root   8 singlet a              0.365068039 a.u.                9.9340 eV
     Dipole Oscillator Strength                    0.0058528418
  Root   9 singlet a              0.368988092 a.u.               10.0407 eV
     Dipole Oscillator Strength                    0.0969135736
  Root  10 singlet a              0.398270628 a.u.               10.8375 eV
     Dipole Oscillator Strength                    0.0707609475
  Root   1 triplet a              0.019341904 a.u.                0.5263 eV
  Root   2 triplet a              0.230742071 a.u.                6.2788 eV
  Root   3 triplet a              0.253886683 a.u.                6.9086 eV
  Root   4 triplet a              0.261529302 a.u.                7.1166 eV
  Root   5 triplet a              0.292643695 a.u.                7.9632 eV
  Root   6 triplet a              0.295923067 a.u.                8.0525 eV
  Root   7 triplet a              0.318500986 a.u.                8.6669 eV
  Root   8 triplet a              0.333061810 a.u.                9.0631 eV
  Root   9 triplet a              0.336190292 a.u.                9.1482 eV
  Root  10 triplet a              0.354407422 a.u.                9.6439 eV
 Total times  cpu:      271.1s     wall:      312.9s
