 Output coordinates in angstroms (scale by  1.889725989 to convert to a.u.)

  No.       Tag          Charge          X              Y              Z
 ---- ---------------- ---------- -------------- -------------- --------------
    1 N                    7.0000     0.00000000     0.00000000    -1.26678200
    2 C                    6.0000     0.00000000     0.00000000    -0.03853300
    3 O                    8.0000     0.00000000     0.00000000     1.13733400

         Total DFT energy =     -167.934175012744

                    DFT Final Alpha Molecular Orbital Analysis
                    ------------------------------------------

 Vector    1  Occ=1.000000D+00  E=-1.906089D+01

 Vector   53  Occ=0.000000D+00  E= 1.173652D+00

 Vector   54  Occ=0.000000D+00  E= 1.175177D+00

 Vector   55  Occ=0.000000D+00  E= 1.289709D+00

 Vector   56  Occ=0.000000D+00  E= 1.378308D+00

 Vector   57  Occ=0.000000D+00  E= 1.383674D+00

 Vector   58  Occ=0.000000D+00  E= 1.419530D+00

 Vector   59  Occ=0.000000D+00  E= 1.423763D+00

 Vector   60  Occ=0.000000D+00  E= 1.536432D+00

 Vector   61  Occ=0.000000D+00  E= 1.698498D+00

 Vector   62  Occ=0.000000D+00  E= 1.700866D+00

 Vector   63  Occ=0.000000D+00  E= 1.799159D+00

 Vector   64  Occ=0.000000D+00  E= 1.819677D+00

 Vector   65  Occ=0.000000D+00  E= 1.820622D+00

 Vector   66  Occ=0.000000D+00  E= 1.997753D+00

 Vector   67  Occ=0.000000D+00  E= 2.050562D+00

 Vector   68  Occ=0.000000D+00  E= 2.059594D+00

 Vector   69  Occ=0.000000D+00  E= 2.226343D+00

 Vector   70  Occ=0.000000D+00  E= 2.310491D+00

 Vector   71  Occ=0.000000D+00  E= 2.312443D+00

 Vector   72  Occ=0.000000D+00  E= 2.358560D+00

 Vector   73  Occ=0.000000D+00  E= 2.424984D+00

 Vector   74  Occ=0.000000D+00  E= 2.654500D+00

 Vector   75  Occ=0.000000D+00  E= 2.655414D+00

 Vector   76  Occ=0.000000D+00  E= 2.658218D+00

 Vector   77  Occ=0.000000D+00  E= 2.658242D+00

 Vector   78  Occ=0.000000D+00  E= 2.892836D+00

 Vector   79  Occ=0.000000D+00  E= 2.894052D+00

 Vector   80  Occ=0.000000D+00  E= 2.943075D+00

 Vector   81  Occ=0.000000D+00  E= 3.064969D+00

 Vector   82  Occ=0.000000D+00  E= 3.065067D+00

 Vector   83  Occ=0.000000D+00  E= 3.085485D+00

 Vector   84  Occ=0.000000D+00  E= 3.086599D+00

 Vector   85  Occ=0.000000D+00  E= 3.104468D+00

 Vector   86  Occ=0.000000D+00  E= 3.286058D+00

 Vector   87  Occ=0.000000D+00  E= 3.293086D+00

 Vector   88  Occ=0.000000D+00  E= 3.457734D+00

 Vector   89  Occ=0.000000D+00  E= 3.672067D+00

 Vector   90  Occ=0.000000D+00  E= 3.673632D+00

 Vector   91  Occ=0.000000D+00  E= 3.738309D+00

 Vector   92  Occ=0.000000D+00  E= 4.002717D+00

 Vector   93  Occ=0.000000D+00  E= 4.004194D+00

 Vector   94  Occ=0.000000D+00  E= 4.141125D+00

 Vector   95  Occ=0.000000D+00  E= 4.404916D+00

 Vector   96  Occ=0.000000D+00  E= 4.406072D+00

 Vector   97  Occ=0.000000D+00  E= 4.412406D+00

 Vector   98  Occ=0.000000D+00  E= 4.709178D+00

 Vector   99  Occ=0.000000D+00  E= 4.724374D+00

 Vector  100  Occ=0.000000D+00  E= 4.751200D+00

 Vector  101  Occ=0.000000D+00  E= 4.759416D+00

 Vector  102  Occ=0.000000D+00  E= 4.994398D+00

 Vector  103  Occ=0.000000D+00  E= 5.150811D+00

 Vector  104  Occ=0.000000D+00  E= 5.150893D+00

 Vector  105  Occ=0.000000D+00  E= 5.174339D+00

 Vector  106  Occ=0.000000D+00  E= 5.185699D+00

 Vector  107  Occ=0.000000D+00  E= 5.230123D+00

 Vector  108  Occ=0.000000D+00  E= 5.427142D+00

 Vector  109  Occ=0.000000D+00  E= 5.525223D+00

 Vector  110  Occ=0.000000D+00  E= 5.528954D+00

 Vector  111  Occ=0.000000D+00  E= 5.641898D+00

 Vector  112  Occ=0.000000D+00  E= 5.642824D+00

 Vector  113  Occ=0.000000D+00  E= 5.967968D+00

 Vector  114  Occ=0.000000D+00  E= 5.972746D+00

 Vector  115  Occ=0.000000D+00  E= 6.247181D+00

 Vector  116  Occ=0.000000D+00  E= 6.441170D+00

 Vector  117  Occ=0.000000D+00  E= 6.442887D+00

 Vector  118  Occ=0.000000D+00  E= 6.664165D+00

 Vector  119  Occ=0.000000D+00  E= 6.928271D+00

 Vector  120  Occ=0.000000D+00  E= 6.931813D+00

 Vector  121  Occ=0.000000D+00  E= 6.949313D+00

 Vector  122  Occ=0.000000D+00  E= 7.249092D+00

 Vector  123  Occ=0.000000D+00  E= 7.249663D+00

 Vector  124  Occ=0.000000D+00  E= 7.362063D+00

 Vector  125  Occ=0.000000D+00  E= 8.461683D+00

 Vector  126  Occ=0.000000D+00  E= 8.781240D+00

 Vector  127  Occ=0.000000D+00  E= 9.411815D+00

 Vector  128  Occ=0.000000D+00  E= 1.212681D+01

 Vector  129  Occ=0.000000D+00  E= 1.681342D+01

 Vector  130  Occ=0.000000D+00  E= 3.483397D+01

 Vector  131  Occ=0.000000D+00  E= 5.167251D+01

 Vector  132  Occ=0.000000D+00  E= 7.180153D+01

     Multipole analysis of the density
     ---------------------------------

     L   x y z        total         alpha         beta         nuclear
     -   - - -        -----         -----         ----         -------
     0   0 0 0     -0.000000    -11.000000    -10.000000     21.000000

     1   1 0 0     -0.000000     -0.000000     -0.000000      0.000000
     1   0 1 0     -0.000000     -0.000000     -0.000000      0.000000
     1   0 0 1      0.272623      0.652996     -0.380373      0.000000

     2   2 0 0    -11.903370     -6.124696     -5.778674      0.000000
     2   1 1 0      0.058305     -0.001286      0.059591      0.000000
     2   1 0 1     -0.000000     -0.000000     -0.000000      0.000000
     2   0 2 0    -10.905018     -6.146714     -4.758304      0.000000
     2   0 1 1     -0.000000     -0.000000     -0.000000      0.000000

  Root   1         a              0.010086493 a.u.                0.2745 eV
     Dipole Oscillator Strength                    0.0000000000
  Root   2         a              0.116462107 a.u.                3.1691 eV
     Dipole Oscillator Strength                    0.0051040723
  Root   3         a              0.198826931 a.u.                5.4104 eV
     Dipole Oscillator Strength                    0.0000000000
  Root   4         a              0.201820772 a.u.                5.4918 eV
     Dipole Oscillator Strength                    0.0285208109
  Root   5         a              0.247028221 a.u.                6.7220 eV
     Dipole Oscillator Strength                    0.0002272936
  Root   6         a              0.262908959 a.u.                7.1541 eV
     Dipole Oscillator Strength                    0.0000000000
  Root   7         a              0.277109402 a.u.                7.5405 eV
     Dipole Oscillator Strength                    0.0017830078
  Root   8         a              0.277845373 a.u.                7.5606 eV
     Dipole Oscillator Strength                    0.0029216471
  Root   9         a              0.293950607 a.u.                7.9988 eV
     Dipole Oscillator Strength                    0.0092392925
  Root  10         a              0.299094298 a.u.                8.1388 eV
     Dipole Oscillator Strength                    0.0008194258
 Total times  cpu:      506.8s     wall:      595.1s
