 Output coordinates in angstroms (scale by  1.889725989 to convert to a.u.)

  No.       Tag          Charge          X              Y              Z
 ---- ---------------- ---------- -------------- -------------- --------------
    1 N                    7.0000     0.00000000     0.00000000     0.07473311
    2 H                    1.0000    -0.42445300     0.00000000    -0.26156589
    3 H                    1.0000     0.42445300     0.00000000    -0.26156589

         Total DFT energy =      -54.605074912531

                    DFT Final Alpha Molecular Orbital Analysis
                    ------------------------------------------

 Vector    1  Occ=1.000000D+00  E=-1.415992D+01

 Vector   43  Occ=0.000000D+00  E= 4.139460D+00

 Vector   44  Occ=0.000000D+00  E= 4.409188D+00

 Vector   45  Occ=0.000000D+00  E= 4.431958D+00

 Vector   46  Occ=0.000000D+00  E= 4.508437D+00

 Vector   47  Occ=0.000000D+00  E= 4.534793D+00

 Vector   48  Occ=0.000000D+00  E= 4.635088D+00

 Vector   49  Occ=0.000000D+00  E= 4.704026D+00

 Vector   50  Occ=0.000000D+00  E= 4.849165D+00

 Vector   51  Occ=0.000000D+00  E= 4.916652D+00

 Vector   52  Occ=0.000000D+00  E= 4.921156D+00

 Vector   53  Occ=0.000000D+00  E= 5.025905D+00

 Vector   54  Occ=0.000000D+00  E= 5.212471D+00

 Vector   55  Occ=0.000000D+00  E= 5.261520D+00

 Vector   56  Occ=0.000000D+00  E= 5.315250D+00

 Vector   57  Occ=0.000000D+00  E= 5.537566D+00

 Vector   58  Occ=0.000000D+00  E= 9.818979D+00

 Vector   59  Occ=0.000000D+00  E= 1.026463D+01

 Vector   60  Occ=0.000000D+00  E= 1.206077D+01

 Vector   61  Occ=0.000000D+00  E= 5.166736D+01

 Vector    1  Occ=1.000000D+00  E=-1.414194D+01

 Vector    2  Occ=1.000000D+00  E=-1.165223D+00

 Vector    3  Occ=1.000000D+00  E=-7.507112D-01

 Vector    4  Occ=1.000000D+00  E=-4.438545D-01

 Vector    5  Occ=0.000000D+00  E=-3.543137D-02

 Vector    6  Occ=0.000000D+00  E= 7.470152D-02

 Vector    7  Occ=0.000000D+00  E= 1.534507D-01

 Vector    8  Occ=0.000000D+00  E= 1.772044D-01

 Vector    9  Occ=0.000000D+00  E= 2.107632D-01

 Vector   10  Occ=0.000000D+00  E= 2.522308D-01

 Vector   11  Occ=0.000000D+00  E= 2.568797D-01

 Vector   12  Occ=0.000000D+00  E= 2.579384D-01

 Vector   13  Occ=0.000000D+00  E= 2.831377D-01

 Vector   14  Occ=0.000000D+00  E= 3.794057D-01

 Vector   15  Occ=0.000000D+00  E= 3.980170D-01

 Vector   16  Occ=0.000000D+00  E= 4.108912D-01

 Vector   17  Occ=0.000000D+00  E= 5.064939D-01

 Vector   18  Occ=0.000000D+00  E= 5.309567D-01

 Vector   19  Occ=0.000000D+00  E= 5.832107D-01

 Vector   20  Occ=0.000000D+00  E= 5.872377D-01

 Vector   21  Occ=0.000000D+00  E= 7.107838D-01

 Vector   22  Occ=0.000000D+00  E= 7.345782D-01

 Vector   23  Occ=0.000000D+00  E= 7.348099D-01

 Vector   24  Occ=0.000000D+00  E= 1.015391D+00

 Vector   25  Occ=0.000000D+00  E= 1.051843D+00

 Vector   26  Occ=0.000000D+00  E= 1.053895D+00

 Vector   27  Occ=0.000000D+00  E= 1.356080D+00

 Vector   28  Occ=0.000000D+00  E= 1.427141D+00

 Vector   29  Occ=0.000000D+00  E= 1.443407D+00

 Vector   30  Occ=0.000000D+00  E= 1.663911D+00

 Vector   31  Occ=0.000000D+00  E= 1.680902D+00

 Vector   32  Occ=0.000000D+00  E= 1.992533D+00

 Vector   33  Occ=0.000000D+00  E= 2.086797D+00

 Vector   34  Occ=0.000000D+00  E= 2.260674D+00

 Vector   35  Occ=0.000000D+00  E= 2.310615D+00

 Vector   36  Occ=0.000000D+00  E= 2.418880D+00

 Vector   37  Occ=0.000000D+00  E= 2.517995D+00

 Vector   38  Occ=0.000000D+00  E= 2.586364D+00

 Vector   39  Occ=0.000000D+00  E= 2.647064D+00

 Vector   40  Occ=0.000000D+00  E= 2.803393D+00

 Vector   41  Occ=0.000000D+00  E= 2.920216D+00

 Vector   42  Occ=0.000000D+00  E= 3.926261D+00

 Vector   43  Occ=0.000000D+00  E= 4.202041D+00

 Vector   44  Occ=0.000000D+00  E= 4.420530D+00

 Vector   45  Occ=0.000000D+00  E= 4.519614D+00

 Vector   46  Occ=0.000000D+00  E= 4.577762D+00

 Vector   47  Occ=0.000000D+00  E= 4.601575D+00

 Vector   48  Occ=0.000000D+00  E= 4.739559D+00

 Vector   49  Occ=0.000000D+00  E= 4.754128D+00

 Vector   50  Occ=0.000000D+00  E= 4.902762D+00

 Vector   51  Occ=0.000000D+00  E= 4.940693D+00

 Vector   52  Occ=0.000000D+00  E= 4.949399D+00

 Vector   53  Occ=0.000000D+00  E= 5.066740D+00

 Vector   54  Occ=0.000000D+00  E= 5.276461D+00

 Vector   55  Occ=0.000000D+00  E= 5.286004D+00

 Vector   56  Occ=0.000000D+00  E= 5.371450D+00

 Vector   57  Occ=0.000000D+00  E= 5.548640D+00

 Vector   58  Occ=0.000000D+00  E= 9.846550D+00

 Vector   59  Occ=0.000000D+00  E= 1.027848D+01

 Vector   60  Occ=0.000000D+00  E= 1.211234D+01

 Vector   61  Occ=0.000000D+00  E= 5.169630D+01

     Multipole analysis of the density
     ---------------------------------

     L   x y z        total         alpha         beta         nuclear
     -   - - -        -----         -----         ----         -------
     0   0 0 0     -0.000000     -5.000000     -4.000000      9.000000

     1   1 0 0      0.000000      0.000000      0.000000      0.000000
     1   0 1 0      0.000000      0.000000     -0.000000      0.000000
     1   0 0 1     -0.758300     -0.387338     -0.370962      0.000000

     2   2 0 0     -4.221038     -2.977273     -2.530493      1.286728
     2   1 1 0      0.000000      0.000000     -0.000000      0.000000
     2   1 0 1      0.000000      0.000000      0.000000      0.000000
     2   0 2 0     -4.511990     -3.058557     -1.453432      0.000000
     2   0 1 1     -0.000000      0.000000     -0.000000      0.000000

  Root   1         a              0.077555208 a.u.                2.1104 eV
     Dipole Oscillator Strength                    0.0067623323
  Root   2         a              0.317124200 a.u.                8.6294 eV
     Dipole Oscillator Strength                    0.0112031896
  Root   3         a              0.336951800 a.u.                9.1689 eV
     Dipole Oscillator Strength                    0.0447390283
  Root   4         a              0.343026646 a.u.                9.3342 eV
     Dipole Oscillator Strength                    0.0216604471
  Root   5         a              0.366970762 a.u.                9.9858 eV
     Dipole Oscillator Strength                    0.0000000000
  Root   6         a              0.392663770 a.u.               10.6849 eV
     Dipole Oscillator Strength                    0.0162251771
  Root   7         a              0.410018907 a.u.               11.1572 eV
     Dipole Oscillator Strength                    0.0046905473
  Root   8         a              0.420132848 a.u.               11.4324 eV
     Dipole Oscillator Strength                    0.0000000000
  Root   9         a              0.420921313 a.u.               11.4539 eV
     Dipole Oscillator Strength                    0.0208632544
  Root  10         a              0.432025376 a.u.               11.7560 eV
     Dipole Oscillator Strength                    0.0012945131
 Total times  cpu:       67.1s     wall:       78.0s
