 Output coordinates in angstroms (scale by  1.889725989 to convert to a.u.)

  No.       Tag          Charge          X              Y              Z
 ---- ---------------- ---------- -------------- -------------- --------------
    1 N                    7.0000     0.00000000     0.00000000    -0.61280907
    2 O                    8.0000     0.00000000     0.00000000     0.53620793

         Total DFT energy =     -129.853350470166

                    DFT Final Alpha Molecular Orbital Analysis
                    ------------------------------------------

 Vector    1  Occ=1.000000D+00  E=-1.910120D+01

 Vector   10  Occ=0.000000D+00  E= 8.554861D-02

 Vector   11  Occ=0.000000D+00  E= 1.113688D-01

 Vector   12  Occ=0.000000D+00  E= 1.170930D-01

 Vector   13  Occ=0.000000D+00  E= 1.216942D-01

 Vector   14  Occ=0.000000D+00  E= 1.750961D-01

 Vector   15  Occ=0.000000D+00  E= 3.668724D-01

 Vector   16  Occ=0.000000D+00  E= 3.682761D-01

 Vector   17  Occ=0.000000D+00  E= 3.828572D-01

 Vector   18  Occ=0.000000D+00  E= 3.926384D-01

 Vector   19  Occ=0.000000D+00  E= 4.014359D-01

 Vector   20  Occ=0.000000D+00  E= 4.031482D-01

 Vector   21  Occ=0.000000D+00  E= 4.202930D-01

 Vector   22  Occ=0.000000D+00  E= 5.018074D-01

 Vector   23  Occ=0.000000D+00  E= 5.039088D-01

 Vector   24  Occ=0.000000D+00  E= 5.145337D-01

 Vector   25  Occ=0.000000D+00  E= 5.550975D-01

 Vector   26  Occ=0.000000D+00  E= 5.553662D-01

 Vector   27  Occ=0.000000D+00  E= 5.578253D-01

 Vector   28  Occ=0.000000D+00  E= 5.689369D-01

 Vector   29  Occ=0.000000D+00  E= 6.188225D-01

 Vector   30  Occ=0.000000D+00  E= 8.472873D-01

 Vector   31  Occ=0.000000D+00  E= 9.245990D-01

 Vector   32  Occ=0.000000D+00  E= 9.387462D-01

 Vector   33  Occ=0.000000D+00  E= 9.797575D-01

 Vector   34  Occ=0.000000D+00  E= 1.084871D+00

 Vector   35  Occ=0.000000D+00  E= 1.202926D+00

 Vector   36  Occ=0.000000D+00  E= 1.292578D+00

 Vector   37  Occ=0.000000D+00  E= 1.292602D+00

 Vector   38  Occ=0.000000D+00  E= 1.407379D+00

 Vector   39  Occ=0.000000D+00  E= 1.434049D+00

 Vector   40  Occ=0.000000D+00  E= 1.660233D+00

 Vector   41  Occ=0.000000D+00  E= 1.731733D+00

 Vector   42  Occ=0.000000D+00  E= 1.763572D+00

 Vector   43  Occ=0.000000D+00  E= 1.838255D+00

 Vector   44  Occ=0.000000D+00  E= 1.838289D+00

 Vector   45  Occ=0.000000D+00  E= 2.103537D+00

 Vector   46  Occ=0.000000D+00  E= 2.126031D+00

 Vector   47  Occ=0.000000D+00  E= 2.228276D+00

 Vector   48  Occ=0.000000D+00  E= 2.383076D+00

 Vector   49  Occ=0.000000D+00  E= 2.468577D+00

 Vector   50  Occ=0.000000D+00  E= 2.553709D+00

 Vector   51  Occ=0.000000D+00  E= 2.579422D+00

 Vector   52  Occ=0.000000D+00  E= 2.849750D+00

 Vector   53  Occ=0.000000D+00  E= 3.446693D+00

 Vector   54  Occ=0.000000D+00  E= 3.884232D+00

 Vector   55  Occ=0.000000D+00  E= 3.884359D+00

 Vector   56  Occ=0.000000D+00  E= 3.916264D+00

 Vector   57  Occ=0.000000D+00  E= 3.916356D+00

 Vector   58  Occ=0.000000D+00  E= 4.191775D+00

 Vector   59  Occ=0.000000D+00  E= 4.221672D+00

 Vector   60  Occ=0.000000D+00  E= 4.353810D+00

 Vector   61  Occ=0.000000D+00  E= 4.488740D+00

 Vector   62  Occ=0.000000D+00  E= 4.532441D+00

 Vector   63  Occ=0.000000D+00  E= 4.665045D+00

 Vector   64  Occ=0.000000D+00  E= 4.665476D+00

 Vector   65  Occ=0.000000D+00  E= 4.871580D+00

 Vector   66  Occ=0.000000D+00  E= 4.912065D+00

 Vector   67  Occ=0.000000D+00  E= 4.941972D+00

 Vector   68  Occ=0.000000D+00  E= 5.011328D+00

 Vector   69  Occ=0.000000D+00  E= 5.156282D+00

 Vector   70  Occ=0.000000D+00  E= 5.156301D+00

 Vector   71  Occ=0.000000D+00  E= 5.478782D+00

 Vector   72  Occ=0.000000D+00  E= 5.649023D+00

 Vector   73  Occ=0.000000D+00  E= 5.649149D+00

 Vector   74  Occ=0.000000D+00  E= 5.929061D+00

 Vector   75  Occ=0.000000D+00  E= 5.959880D+00

 Vector   76  Occ=0.000000D+00  E= 6.323265D+00

 Vector   77  Occ=0.000000D+00  E= 6.403507D+00

 Vector   78  Occ=0.000000D+00  E= 6.403620D+00

 Vector   79  Occ=0.000000D+00  E= 6.563969D+00

 Vector   80  Occ=0.000000D+00  E= 6.594962D+00

 Vector   81  Occ=0.000000D+00  E= 6.637680D+00

 Vector   82  Occ=0.000000D+00  E= 7.018761D+00

 Vector   83  Occ=0.000000D+00  E= 7.049601D+00

 Vector   84  Occ=0.000000D+00  E= 7.822981D+00

 Vector   85  Occ=0.000000D+00  E= 8.459816D+00

 Vector   86  Occ=0.000000D+00  E= 1.206158D+01

 Vector   87  Occ=0.000000D+00  E= 1.668004D+01

 Vector   88  Occ=0.000000D+00  E= 5.159230D+01

 Vector   89  Occ=0.000000D+00  E= 7.168253D+01

     Multipole analysis of the density
     ---------------------------------

     L   x y z        total         alpha         beta         nuclear
     -   - - -        -----         -----         ----         -------
     0   0 0 0     -0.000000     -8.000000     -7.000000     15.000000

     1   1 0 0      0.000000      0.000000      0.000000      0.000000
     1   0 1 0      0.000000      0.000000      0.000000      0.000000
     1   0 0 1      0.054272      0.281122     -0.226850      0.000000

     2   2 0 0     -7.253816     -3.845572     -3.408244      0.000000
     2   1 1 0     -0.239042     -0.253251      0.014209      0.000000
     2   1 0 1      0.000000      0.000000      0.000000      0.000000
     2   0 2 0     -7.947086     -4.580051     -3.367035      0.000000
     2   0 1 1     -0.000000     -0.000000      0.000000      0.000000

  Root   1         a              0.004978811 a.u.                0.1355 eV
     Dipole Oscillator Strength                    0.0000000000
  Root   2         a              0.225057711 a.u.                6.1241 eV
     Dipole Oscillator Strength                    0.0022194202
  Root   3         a              0.244080836 a.u.                6.6418 eV
     Dipole Oscillator Strength                    0.0001829577
  Root   4         a              0.252852715 a.u.                6.8805 eV
     Dipole Oscillator Strength                    0.0011929026
  Root   5         a              0.263290691 a.u.                7.1645 eV
     Dipole Oscillator Strength                    0.0000000000
  Root   6         a              0.267159746 a.u.                7.2698 eV
     Dipole Oscillator Strength                    0.0198833139
  Root   7         a              0.268722058 a.u.                7.3123 eV
     Dipole Oscillator Strength                    0.0147026291
  Root   8         a              0.269349216 a.u.                7.3294 eV
     Dipole Oscillator Strength                    0.0000000000
  Root   9         a              0.315442755 a.u.                8.5836 eV
     Dipole Oscillator Strength                    0.0005840731
  Root  10         a              0.321333189 a.u.                8.7439 eV
     Dipole Oscillator Strength                    0.0028829972
 Total times  cpu:      112.4s     wall:      131.0s
