 Output coordinates in angstroms (scale by  1.889725989 to convert to a.u.)

  No.       Tag          Charge          X              Y              Z
 ---- ---------------- ---------- -------------- -------------- --------------
    1 O                    8.0000     0.00000000     0.00000000    -0.20366278
    2 H                    1.0000     0.00000000     0.00000000     1.62930222

         Total DFT energy =      -75.550395488322

                    DFT Final Alpha Molecular Orbital Analysis
                    ------------------------------------------

 Vector    1  Occ=1.000000D+00  E=-1.905166D+01

 Vector   31  Occ=0.000000D+00  E= 1.837533D+00

 Vector   32  Occ=0.000000D+00  E= 2.005765D+00

 Vector   33  Occ=0.000000D+00  E= 2.181463D+00

 Vector   34  Occ=0.000000D+00  E= 2.230241D+00

 Vector   35  Occ=0.000000D+00  E= 2.267209D+00

 Vector   36  Occ=0.000000D+00  E= 2.639297D+00

 Vector   37  Occ=0.000000D+00  E= 2.852956D+00

 Vector   38  Occ=0.000000D+00  E= 5.134311D+00

 Vector   39  Occ=0.000000D+00  E= 5.152145D+00

 Vector   40  Occ=0.000000D+00  E= 5.153940D+00

 Vector   41  Occ=0.000000D+00  E= 5.166574D+00

 Vector   42  Occ=0.000000D+00  E= 5.172115D+00

 Vector   43  Occ=0.000000D+00  E= 5.207580D+00

 Vector   44  Occ=0.000000D+00  E= 5.252422D+00

 Vector   45  Occ=0.000000D+00  E= 5.726922D+00

 Vector   46  Occ=0.000000D+00  E= 5.794867D+00

 Vector   47  Occ=0.000000D+00  E= 5.917364D+00

 Vector   48  Occ=0.000000D+00  E= 6.329445D+00

 Vector   49  Occ=0.000000D+00  E= 6.340273D+00

 Vector   50  Occ=0.000000D+00  E= 6.347788D+00

 Vector   51  Occ=0.000000D+00  E= 6.413996D+00

 Vector   52  Occ=0.000000D+00  E= 6.469548D+00

 Vector   53  Occ=0.000000D+00  E= 6.638168D+00

 Vector   54  Occ=0.000000D+00  E= 1.660763D+01

 Vector   55  Occ=0.000000D+00  E= 7.158909D+01

 Vector    1  Occ=1.000000D+00  E=-1.903249D+01

 Vector    2  Occ=1.000000D+00  E=-9.895285D-01

 Vector    3  Occ=1.000000D+00  E=-4.733416D-01

 Vector    4  Occ=1.000000D+00  E=-4.241018D-01

 Vector    5  Occ=0.000000D+00  E=-6.964756D-02

 Vector    6  Occ=0.000000D+00  E=-4.979334D-02

 Vector    7  Occ=0.000000D+00  E= 1.175257D-01

 Vector    8  Occ=0.000000D+00  E= 1.374656D-01

 Vector    9  Occ=0.000000D+00  E= 1.419663D-01

 Vector   10  Occ=0.000000D+00  E= 1.437680D-01

 Vector   11  Occ=0.000000D+00  E= 2.266943D-01

 Vector   12  Occ=0.000000D+00  E= 2.281672D-01

 Vector   13  Occ=0.000000D+00  E= 2.344676D-01

 Vector   14  Occ=0.000000D+00  E= 4.389486D-01

 Vector   15  Occ=0.000000D+00  E= 4.737402D-01

 Vector   16  Occ=0.000000D+00  E= 4.746355D-01

 Vector   17  Occ=0.000000D+00  E= 5.251738D-01

 Vector   18  Occ=0.000000D+00  E= 5.437710D-01

 Vector   19  Occ=0.000000D+00  E= 5.438603D-01

 Vector   20  Occ=0.000000D+00  E= 5.787283D-01

 Vector   21  Occ=0.000000D+00  E= 6.630714D-01

 Vector   22  Occ=0.000000D+00  E= 6.723848D-01

 Vector   23  Occ=0.000000D+00  E= 8.075382D-01

 Vector   24  Occ=0.000000D+00  E= 1.157194D+00

 Vector   25  Occ=0.000000D+00  E= 1.644387D+00

 Vector   26  Occ=0.000000D+00  E= 1.645600D+00

 Vector   27  Occ=0.000000D+00  E= 1.691351D+00

 Vector   28  Occ=0.000000D+00  E= 1.827136D+00

 Vector   29  Occ=0.000000D+00  E= 1.836571D+00

 Vector   30  Occ=0.000000D+00  E= 1.837331D+00

 Vector   31  Occ=0.000000D+00  E= 1.845161D+00

 Vector   32  Occ=0.000000D+00  E= 2.031116D+00

 Vector   33  Occ=0.000000D+00  E= 2.243007D+00

 Vector   34  Occ=0.000000D+00  E= 2.261440D+00

 Vector   35  Occ=0.000000D+00  E= 2.278291D+00

 Vector   36  Occ=0.000000D+00  E= 2.668199D+00

 Vector   37  Occ=0.000000D+00  E= 2.881491D+00

 Vector   38  Occ=0.000000D+00  E= 5.196808D+00

 Vector   39  Occ=0.000000D+00  E= 5.203044D+00

 Vector   40  Occ=0.000000D+00  E= 5.209792D+00

 Vector   41  Occ=0.000000D+00  E= 5.216810D+00

 Vector   42  Occ=0.000000D+00  E= 5.241886D+00

 Vector   43  Occ=0.000000D+00  E= 5.247956D+00

 Vector   44  Occ=0.000000D+00  E= 5.259503D+00

 Vector   45  Occ=0.000000D+00  E= 5.812464D+00

 Vector   46  Occ=0.000000D+00  E= 5.837435D+00

 Vector   47  Occ=0.000000D+00  E= 5.922088D+00

 Vector   48  Occ=0.000000D+00  E= 6.413166D+00

 Vector   49  Occ=0.000000D+00  E= 6.435324D+00

 Vector   50  Occ=0.000000D+00  E= 6.436092D+00

 Vector   51  Occ=0.000000D+00  E= 6.444924D+00

 Vector   52  Occ=0.000000D+00  E= 6.496929D+00

 Vector   53  Occ=0.000000D+00  E= 6.679000D+00

 Vector   54  Occ=0.000000D+00  E= 1.665705D+01

 Vector   55  Occ=0.000000D+00  E= 7.161975D+01

     Multipole analysis of the density
     ---------------------------------

     L   x y z        total         alpha         beta         nuclear
     -   - - -        -----         -----         ----         -------
     0   0 0 0     -0.000000     -5.000000     -4.000000      9.000000

     1   1 0 0     -0.000000     -0.000000      0.000000      0.000000
     1   0 1 0     -0.000000     -0.000000     -0.000000      0.000000
     1   0 0 1      0.870735      0.314693      0.556043      0.000000

     2   2 0 0     -4.753112     -2.985546     -1.767566      0.000000
     2   1 1 0     -0.334827     -0.014140     -0.320687      0.000000
     2   1 0 1      0.000000     -0.000000      0.000000      0.000000
     2   0 2 0     -5.519628     -3.017916     -2.501712      0.000000
     2   0 1 1     -0.000000     -0.000000     -0.000000      0.000000

  Root   1         a              0.015440202 a.u.                0.4201 eV
     Dipole Oscillator Strength                    0.0000000000
  Root   2         a              0.048371429 a.u.                1.3163 eV
     Dipole Oscillator Strength                    0.0005788514
  Root   3         a              0.053733094 a.u.                1.4622 eV
     Dipole Oscillator Strength                    0.0000214920
  Root   4         a              0.085022799 a.u.                2.3136 eV
     Dipole Oscillator Strength                    0.0000847641
  Root   5         a              0.093078658 a.u.                2.5328 eV
     Dipole Oscillator Strength                    0.0008852312
  Root   6         a              0.147714542 a.u.                4.0195 eV
     Dipole Oscillator Strength                    0.0004001248
  Root   7         a              0.294200106 a.u.                8.0056 eV
     Dipole Oscillator Strength                    0.6927087218
  Root   8         a              0.331204425 a.u.                9.0125 eV
     Dipole Oscillator Strength                    0.0191921929
  Root   9         a              0.350464153 a.u.                9.5366 eV
     Dipole Oscillator Strength                    0.0566731634
  Root  10         a              0.357163754 a.u.                9.7189 eV
     Dipole Oscillator Strength                    0.0158960702
 Total times  cpu:       40.6s     wall:       47.0s
