 Output coordinates in angstroms (scale by  1.889725989 to convert to a.u.)

  No.       Tag          Charge          X              Y              Z
 ---- ---------------- ---------- -------------- -------------- --------------
    1 C                    6.0000     0.00000000     0.00000000     1.71185321
    2 C                    6.0000     1.20562300     0.00000000     0.99550421
    3 C                    6.0000    -1.20562300     0.00000000     0.99550421
    4 C                    6.0000     0.00000000     0.00000000    -1.09664979
    5 C                    6.0000     1.20309100     0.00000000    -0.38672779
    6 C                    6.0000    -1.20309100     0.00000000    -0.38672779
    7 C                    6.0000     0.00000000     0.00000000    -2.52197579
    8 N                    7.0000     0.00000000     0.00000000     3.07739221
    9 N                    7.0000     0.00000000     0.00000000    -3.68512279
   10 H                    1.0000     2.14198000     0.00000000     1.53082721
   11 H                    1.0000    -2.14198000     0.00000000     1.53082721
   12 H                    1.0000     2.13631200     0.00000000    -0.92541979
   13 H                    1.0000    -2.13631200     0.00000000    -0.92541979
   14 H                    1.0000    -0.85820400     0.00000000     3.58930821
   15 H                    1.0000     0.85820400     0.00000000     3.58930821

         Total DFT energy =     -379.639578828897

                       DFT Final Molecular Orbital Analysis
                       ------------------------------------

 Vector    1  Occ=2.000000D+00  E=-1.417511D+01

 Vector  349  Occ=0.000000D+00  E= 4.292759D+00

 Vector  350  Occ=0.000000D+00  E= 4.298478D+00

 Vector  351  Occ=0.000000D+00  E= 4.329057D+00

 Vector  352  Occ=0.000000D+00  E= 4.370583D+00

 Vector  353  Occ=0.000000D+00  E= 4.390055D+00

 Vector  354  Occ=0.000000D+00  E= 4.418537D+00

 Vector  355  Occ=0.000000D+00  E= 4.421825D+00

 Vector  356  Occ=0.000000D+00  E= 4.472982D+00

 Vector  357  Occ=0.000000D+00  E= 4.494671D+00

 Vector  358  Occ=0.000000D+00  E= 4.505708D+00

 Vector  359  Occ=0.000000D+00  E= 4.552558D+00

 Vector  360  Occ=0.000000D+00  E= 4.574375D+00

 Vector  361  Occ=0.000000D+00  E= 4.582859D+00

 Vector  362  Occ=0.000000D+00  E= 4.716178D+00

 Vector  363  Occ=0.000000D+00  E= 4.724394D+00

 Vector  364  Occ=0.000000D+00  E= 4.726559D+00

 Vector  365  Occ=0.000000D+00  E= 4.772012D+00

 Vector  366  Occ=0.000000D+00  E= 4.773719D+00

 Vector  367  Occ=0.000000D+00  E= 4.780733D+00

 Vector  368  Occ=0.000000D+00  E= 4.788166D+00

 Vector  369  Occ=0.000000D+00  E= 4.805334D+00

 Vector  370  Occ=0.000000D+00  E= 4.827931D+00

 Vector  371  Occ=0.000000D+00  E= 4.829514D+00

 Vector  372  Occ=0.000000D+00  E= 4.832561D+00

 Vector  373  Occ=0.000000D+00  E= 4.871994D+00

 Vector  374  Occ=0.000000D+00  E= 4.892849D+00

 Vector  375  Occ=0.000000D+00  E= 4.905868D+00

 Vector  376  Occ=0.000000D+00  E= 4.934492D+00

 Vector  377  Occ=0.000000D+00  E= 4.969995D+00

 Vector  378  Occ=0.000000D+00  E= 4.988056D+00

 Vector  379  Occ=0.000000D+00  E= 4.991731D+00

 Vector  380  Occ=0.000000D+00  E= 5.048668D+00

 Vector  381  Occ=0.000000D+00  E= 5.090380D+00

 Vector  382  Occ=0.000000D+00  E= 5.090446D+00

 Vector  383  Occ=0.000000D+00  E= 5.106331D+00

 Vector  384  Occ=0.000000D+00  E= 5.136567D+00

 Vector  385  Occ=0.000000D+00  E= 5.233660D+00

 Vector  386  Occ=0.000000D+00  E= 5.234349D+00

 Vector  387  Occ=0.000000D+00  E= 5.252279D+00

 Vector  388  Occ=0.000000D+00  E= 5.311326D+00

 Vector  389  Occ=0.000000D+00  E= 5.365692D+00

 Vector  390  Occ=0.000000D+00  E= 5.389975D+00

 Vector  391  Occ=0.000000D+00  E= 5.421381D+00

 Vector  392  Occ=0.000000D+00  E= 5.435825D+00

 Vector  393  Occ=0.000000D+00  E= 5.469307D+00

 Vector  394  Occ=0.000000D+00  E= 5.551213D+00

 Vector  395  Occ=0.000000D+00  E= 5.585084D+00

 Vector  396  Occ=0.000000D+00  E= 5.610246D+00

 Vector  397  Occ=0.000000D+00  E= 5.638168D+00

 Vector  398  Occ=0.000000D+00  E= 5.760264D+00

 Vector  399  Occ=0.000000D+00  E= 5.777148D+00

 Vector  400  Occ=0.000000D+00  E= 5.843066D+00

 Vector  401  Occ=0.000000D+00  E= 5.963640D+00

 Vector  402  Occ=0.000000D+00  E= 6.111224D+00

 Vector  403  Occ=0.000000D+00  E= 6.179831D+00

 Vector  404  Occ=0.000000D+00  E= 6.239108D+00

 Vector  405  Occ=0.000000D+00  E= 6.241697D+00

 Vector  406  Occ=0.000000D+00  E= 6.438790D+00

 Vector  407  Occ=0.000000D+00  E= 6.483651D+00

 Vector  408  Occ=0.000000D+00  E= 6.633280D+00

 Vector  409  Occ=0.000000D+00  E= 7.611974D+00

 Vector  410  Occ=0.000000D+00  E= 8.011096D+00

 Vector  411  Occ=0.000000D+00  E= 8.032011D+00

 Vector  412  Occ=0.000000D+00  E= 8.166138D+00

 Vector  413  Occ=0.000000D+00  E= 8.250800D+00

 Vector  414  Occ=0.000000D+00  E= 8.306185D+00

 Vector  415  Occ=0.000000D+00  E= 8.406229D+00

 Vector  416  Occ=0.000000D+00  E= 8.601933D+00

 Vector  417  Occ=0.000000D+00  E= 8.919021D+00

 Vector  418  Occ=0.000000D+00  E= 1.215437D+01

 Vector  419  Occ=0.000000D+00  E= 1.222246D+01

 Vector  420  Occ=0.000000D+00  E= 3.464946D+01

 Vector  421  Occ=0.000000D+00  E= 3.468165D+01

 Vector  422  Occ=0.000000D+00  E= 3.474600D+01

 Vector  423  Occ=0.000000D+00  E= 3.486173D+01

 Vector  424  Occ=0.000000D+00  E= 3.487268D+01

 Vector  425  Occ=0.000000D+00  E= 3.495700D+01

 Vector  426  Occ=0.000000D+00  E= 3.518072D+01

 Vector  427  Occ=0.000000D+00  E= 5.175448D+01

 Vector  428  Occ=0.000000D+00  E= 5.178732D+01

     Multipole analysis of the density
     ---------------------------------

     L   x y z        total         alpha         beta         nuclear
     -   - - -        -----         -----         ----         -------
     0   0 0 0     -0.000000    -31.000000    -31.000000     62.000000

     1   1 0 0      0.000160      0.000080      0.000080      0.000000
     1   0 1 0     -0.000001     -0.000000     -0.000000      0.000000
     1   0 0 1      2.812674      1.406337      1.406337      0.000000

     2   2 0 0    -32.928727   -113.933529   -113.933529    194.938330
     2   1 1 0      0.000023      0.000012      0.000012      0.000000
     2   1 0 1      0.000122      0.000061      0.000061      0.000000
     2   0 2 0    -41.545356    -20.772678    -20.772678      0.000000
     2   0 1 1      0.000002      0.000001      0.000001      0.000000

  Root   1 singlet a              0.176452684 a.u.                4.8015 eV
     Dipole Oscillator Strength                    0.0267565095
  Root   2 singlet a              0.196910395 a.u.                5.3582 eV
     Dipole Oscillator Strength                    0.5485046101
  Root   3 singlet a              0.205593806 a.u.                5.5945 eV
     Dipole Oscillator Strength                    0.0015497884
  Root   4 singlet a              0.235102617 a.u.                6.3975 eV
     Dipole Oscillator Strength                    0.0000000479
  Root   5 singlet a              0.235160822 a.u.                6.3991 eV
     Dipole Oscillator Strength                    0.0070502955
  Root   6 singlet a              0.244828982 a.u.                6.6621 eV
     Dipole Oscillator Strength                    0.2942695282
  Root   7 singlet a              0.247111809 a.u.                6.7243 eV
     Dipole Oscillator Strength                    0.0000000000
  Root   8 singlet a              0.257485144 a.u.                7.0065 eV
     Dipole Oscillator Strength                    0.0000000039
  Root   1 triplet a              0.128354087 a.u.                3.4927 eV
  Root   2 triplet a              0.143317706 a.u.                3.8999 eV
  Root   3 triplet a              0.168078447 a.u.                4.5736 eV
  Root   4 triplet a              0.187032774 a.u.                5.0894 eV
  Root   5 triplet a              0.199504934 a.u.                5.4288 eV
  Root   6 triplet a              0.214721207 a.u.                5.8429 eV
  Root   7 triplet a              0.227464040 a.u.                6.1896 eV
  Root   8 triplet a              0.231359111 a.u.                6.2956 eV
 Total times  cpu:     7069.8s     wall:     8339.9s
