 Output coordinates in angstroms (scale by  1.889725989 to convert to a.u.)

  No.       Tag          Charge          X              Y              Z
 ---- ---------------- ---------- -------------- -------------- --------------
    1 C                    6.0000     0.00000000     0.00000000     0.93672606
    2 C                    6.0000     1.20290500     0.00000000     0.22135106
    3 C                    6.0000    -1.20290500     0.00000000     0.22135106
    4 C                    6.0000     0.00000000     0.00000000    -1.87665094
    5 C                    6.0000     1.19767400     0.00000000    -1.16705194
    6 C                    6.0000    -1.19767400     0.00000000    -1.16705194
    7 N                    7.0000     0.00000000     0.00000000     2.31040306
    8 H                    1.0000     2.13778300     0.00000000    -1.69567094
    9 H                    1.0000    -2.13778300     0.00000000    -1.69567094
   10 H                    1.0000     0.00000000     0.00000000    -2.95344994
   11 H                    1.0000     2.13893700     0.00000000     0.75878206
   12 H                    1.0000    -2.13893700     0.00000000     0.75878206
   13 H                    1.0000    -0.85799500     0.00000000     2.82118306
   14 H                    1.0000     0.85799500     0.00000000     2.82118306

         Total DFT energy =     -287.444022578355

                       DFT Final Molecular Orbital Analysis
                       ------------------------------------

 Vector    1  Occ=2.000000D+00  E=-1.414961D+01

 Vector  274  Occ=0.000000D+00  E= 3.715697D+00

 Vector  275  Occ=0.000000D+00  E= 3.718914D+00

 Vector  276  Occ=0.000000D+00  E= 3.755589D+00

 Vector  277  Occ=0.000000D+00  E= 3.802378D+00

 Vector  278  Occ=0.000000D+00  E= 3.802692D+00

 Vector  279  Occ=0.000000D+00  E= 3.809808D+00

 Vector  280  Occ=0.000000D+00  E= 3.831375D+00

 Vector  281  Occ=0.000000D+00  E= 3.901279D+00

 Vector  282  Occ=0.000000D+00  E= 3.970951D+00

 Vector  283  Occ=0.000000D+00  E= 3.995719D+00

 Vector  284  Occ=0.000000D+00  E= 4.030366D+00

 Vector  285  Occ=0.000000D+00  E= 4.036231D+00

 Vector  286  Occ=0.000000D+00  E= 4.045067D+00

 Vector  287  Occ=0.000000D+00  E= 4.079654D+00

 Vector  288  Occ=0.000000D+00  E= 4.114962D+00

 Vector  289  Occ=0.000000D+00  E= 4.207915D+00

 Vector  290  Occ=0.000000D+00  E= 4.211006D+00

 Vector  291  Occ=0.000000D+00  E= 4.217682D+00

 Vector  292  Occ=0.000000D+00  E= 4.232297D+00

 Vector  293  Occ=0.000000D+00  E= 4.243833D+00

 Vector  294  Occ=0.000000D+00  E= 4.251992D+00

 Vector  295  Occ=0.000000D+00  E= 4.309411D+00

 Vector  296  Occ=0.000000D+00  E= 4.312009D+00

 Vector  297  Occ=0.000000D+00  E= 4.327200D+00

 Vector  298  Occ=0.000000D+00  E= 4.350891D+00

 Vector  299  Occ=0.000000D+00  E= 4.369833D+00

 Vector  300  Occ=0.000000D+00  E= 4.410481D+00

 Vector  301  Occ=0.000000D+00  E= 4.476262D+00

 Vector  302  Occ=0.000000D+00  E= 4.520781D+00

 Vector  303  Occ=0.000000D+00  E= 4.549941D+00

 Vector  304  Occ=0.000000D+00  E= 4.552067D+00

 Vector  305  Occ=0.000000D+00  E= 4.594618D+00

 Vector  306  Occ=0.000000D+00  E= 4.622290D+00

 Vector  307  Occ=0.000000D+00  E= 4.647559D+00

 Vector  308  Occ=0.000000D+00  E= 4.723645D+00

 Vector  309  Occ=0.000000D+00  E= 4.749500D+00

 Vector  310  Occ=0.000000D+00  E= 4.780186D+00

 Vector  311  Occ=0.000000D+00  E= 4.792656D+00

 Vector  312  Occ=0.000000D+00  E= 4.805934D+00

 Vector  313  Occ=0.000000D+00  E= 4.880177D+00

 Vector  314  Occ=0.000000D+00  E= 4.891846D+00

 Vector  315  Occ=0.000000D+00  E= 4.913350D+00

 Vector  316  Occ=0.000000D+00  E= 5.002151D+00

 Vector  317  Occ=0.000000D+00  E= 5.004378D+00

 Vector  318  Occ=0.000000D+00  E= 5.043848D+00

 Vector  319  Occ=0.000000D+00  E= 5.082904D+00

 Vector  320  Occ=0.000000D+00  E= 5.110824D+00

 Vector  321  Occ=0.000000D+00  E= 5.138718D+00

 Vector  322  Occ=0.000000D+00  E= 5.223817D+00

 Vector  323  Occ=0.000000D+00  E= 5.233681D+00

 Vector  324  Occ=0.000000D+00  E= 5.251221D+00

 Vector  325  Occ=0.000000D+00  E= 5.327430D+00

 Vector  326  Occ=0.000000D+00  E= 5.365673D+00

 Vector  327  Occ=0.000000D+00  E= 5.418110D+00

 Vector  328  Occ=0.000000D+00  E= 5.484161D+00

 Vector  329  Occ=0.000000D+00  E= 5.515045D+00

 Vector  330  Occ=0.000000D+00  E= 5.602127D+00

 Vector  331  Occ=0.000000D+00  E= 5.619436D+00

 Vector  332  Occ=0.000000D+00  E= 5.711379D+00

 Vector  333  Occ=0.000000D+00  E= 5.781810D+00

 Vector  334  Occ=0.000000D+00  E= 5.856578D+00

 Vector  335  Occ=0.000000D+00  E= 5.956503D+00

 Vector  336  Occ=0.000000D+00  E= 6.069957D+00

 Vector  337  Occ=0.000000D+00  E= 6.260031D+00

 Vector  338  Occ=0.000000D+00  E= 6.429442D+00

 Vector  339  Occ=0.000000D+00  E= 6.572764D+00

 Vector  340  Occ=0.000000D+00  E= 7.990161D+00

 Vector  341  Occ=0.000000D+00  E= 8.061888D+00

 Vector  342  Occ=0.000000D+00  E= 8.113670D+00

 Vector  343  Occ=0.000000D+00  E= 8.255368D+00

 Vector  344  Occ=0.000000D+00  E= 8.295946D+00

 Vector  345  Occ=0.000000D+00  E= 8.549598D+00

 Vector  346  Occ=0.000000D+00  E= 1.217752D+01

 Vector  347  Occ=0.000000D+00  E= 3.465156D+01

 Vector  348  Occ=0.000000D+00  E= 3.470638D+01

 Vector  349  Occ=0.000000D+00  E= 3.472123D+01

 Vector  350  Occ=0.000000D+00  E= 3.489176D+01

 Vector  351  Occ=0.000000D+00  E= 3.490358D+01

 Vector  352  Occ=0.000000D+00  E= 3.513406D+01

 Vector  353  Occ=0.000000D+00  E= 5.178024D+01

     Multipole analysis of the density
     ---------------------------------

     L   x y z        total         alpha         beta         nuclear
     -   - - -        -----         -----         ----         -------
     0   0 0 0     -0.000000    -25.000000    -25.000000     50.000000

     1   1 0 0      0.000120      0.000060      0.000060      0.000000
     1   0 1 0     -0.000000     -0.000000     -0.000000      0.000000
     1   0 0 1      0.711517      0.355758      0.355758     -0.000000

     2   2 0 0    -27.267605   -110.658705   -110.658705    194.049805
     2   1 1 0      0.000000      0.000000      0.000000      0.000000
     2   1 0 1     -0.000192     -0.000096     -0.000096      0.000000
     2   0 2 0    -34.771741    -17.385870    -17.385870      0.000000
     2   0 1 1     -0.000000     -0.000000     -0.000000      0.000000

  Root   1 singlet a              0.178879673 a.u.                4.8676 eV
     Dipole Oscillator Strength                    0.0453523089
  Root   2 singlet a              0.194184210 a.u.                5.2840 eV
     Dipole Oscillator Strength                    0.0034962424
  Root   3 singlet a              0.213853516 a.u.                5.8193 eV
     Dipole Oscillator Strength                    0.2145856800
  Root   4 singlet a              0.222850238 a.u.                6.0641 eV
     Dipole Oscillator Strength                    0.0000005956
  Root   5 singlet a              0.224221506 a.u.                6.1014 eV
     Dipole Oscillator Strength                    0.0000000012
  Root   6 singlet a              0.250491132 a.u.                6.8162 eV
     Dipole Oscillator Strength                    0.0002250838
  Root   7 singlet a              0.253170234 a.u.                6.8891 eV
     Dipole Oscillator Strength                    0.0394042067
  Root   8 singlet a              0.256391739 a.u.                6.9768 eV
     Dipole Oscillator Strength                    0.0000000054
  Root   1 triplet a              0.141436901 a.u.                3.8487 eV
  Root   2 triplet a              0.142689873 a.u.                3.8828 eV
  Root   3 triplet a              0.169234217 a.u.                4.6051 eV
  Root   4 triplet a              0.188083264 a.u.                5.1180 eV
  Root   5 triplet a              0.203265532 a.u.                5.5311 eV
  Root   6 triplet a              0.219127559 a.u.                5.9628 eV
  Root   7 triplet a              0.221916396 a.u.                6.0387 eV
  Root   8 triplet a              0.246069554 a.u.                6.6959 eV
 Total times  cpu:     3127.3s     wall:     3784.2s
