 Output coordinates in angstroms (scale by  1.889725989 to convert to a.u.)

  No.       Tag          Charge          X              Y              Z
 ---- ---------------- ---------- -------------- -------------- --------------
    1 C                    6.0000     0.00000000     0.00000000     2.69939300
    2 C                    6.0000     1.14725300     0.00000000     1.89190800
    3 C                    6.0000    -1.14725300     0.00000000     1.89190800
    4 C                    6.0000     0.74381500     0.00000000     0.55061500
    5 C                    6.0000    -0.74381500     0.00000000     0.55061500
    6 C                    6.0000     0.00000000     0.00000000    -2.49360400
    7 C                    6.0000     1.26255100     0.00000000    -1.90266000
    8 C                    6.0000    -1.26255100     0.00000000    -1.90266000
    9 C                    6.0000     1.58837000     0.00000000    -0.54778100
   10 C                    6.0000    -1.58837000     0.00000000    -0.54778100
   11 H                    1.0000     0.00000000     0.00000000     3.77578100
   12 H                    1.0000     2.16780600     0.00000000     2.23284600
   13 H                    1.0000    -2.16780600     0.00000000     2.23284600
   14 H                    1.0000     0.00000000     0.00000000    -3.57476700
   15 H                    1.0000     2.09826700     0.00000000    -2.58668800
   16 H                    1.0000    -2.09826700     0.00000000    -2.58668800
   17 H                    1.0000     2.64613600     0.00000000    -0.31652400
   18 H                    1.0000    -2.64613600     0.00000000    -0.31652400

         Total DFT energy =     -385.587565352004

                       DFT Final Molecular Orbital Analysis
                       ------------------------------------

 Vector    1  Occ=2.000000D+00  E=-1.006409D+01

 Vector  405  Occ=0.000000D+00  E= 4.166373D+00

 Vector  406  Occ=0.000000D+00  E= 4.176981D+00

 Vector  407  Occ=0.000000D+00  E= 4.208155D+00

 Vector  408  Occ=0.000000D+00  E= 4.232160D+00

 Vector  409  Occ=0.000000D+00  E= 4.236039D+00

 Vector  410  Occ=0.000000D+00  E= 4.261725D+00

 Vector  411  Occ=0.000000D+00  E= 4.289797D+00

 Vector  412  Occ=0.000000D+00  E= 4.321324D+00

 Vector  413  Occ=0.000000D+00  E= 4.323042D+00

 Vector  414  Occ=0.000000D+00  E= 4.334413D+00

 Vector  415  Occ=0.000000D+00  E= 4.355113D+00

 Vector  416  Occ=0.000000D+00  E= 4.363870D+00

 Vector  417  Occ=0.000000D+00  E= 4.379368D+00

 Vector  418  Occ=0.000000D+00  E= 4.400223D+00

 Vector  419  Occ=0.000000D+00  E= 4.425422D+00

 Vector  420  Occ=0.000000D+00  E= 4.445971D+00

 Vector  421  Occ=0.000000D+00  E= 4.451220D+00

 Vector  422  Occ=0.000000D+00  E= 4.452290D+00

 Vector  423  Occ=0.000000D+00  E= 4.475660D+00

 Vector  424  Occ=0.000000D+00  E= 4.513039D+00

 Vector  425  Occ=0.000000D+00  E= 4.539729D+00

 Vector  426  Occ=0.000000D+00  E= 4.549062D+00

 Vector  427  Occ=0.000000D+00  E= 4.572326D+00

 Vector  428  Occ=0.000000D+00  E= 4.606587D+00

 Vector  429  Occ=0.000000D+00  E= 4.627204D+00

 Vector  430  Occ=0.000000D+00  E= 4.632603D+00

 Vector  431  Occ=0.000000D+00  E= 4.645788D+00

 Vector  432  Occ=0.000000D+00  E= 4.730927D+00

 Vector  433  Occ=0.000000D+00  E= 4.749783D+00

 Vector  434  Occ=0.000000D+00  E= 4.785717D+00

 Vector  435  Occ=0.000000D+00  E= 4.901177D+00

 Vector  436  Occ=0.000000D+00  E= 4.904813D+00

 Vector  437  Occ=0.000000D+00  E= 4.907432D+00

 Vector  438  Occ=0.000000D+00  E= 4.910037D+00

 Vector  439  Occ=0.000000D+00  E= 4.913292D+00

 Vector  440  Occ=0.000000D+00  E= 4.991630D+00

 Vector  441  Occ=0.000000D+00  E= 5.077016D+00

 Vector  442  Occ=0.000000D+00  E= 5.096623D+00

 Vector  443  Occ=0.000000D+00  E= 5.110744D+00

 Vector  444  Occ=0.000000D+00  E= 5.178796D+00

 Vector  445  Occ=0.000000D+00  E= 5.181270D+00

 Vector  446  Occ=0.000000D+00  E= 5.210633D+00

 Vector  447  Occ=0.000000D+00  E= 5.212345D+00

 Vector  448  Occ=0.000000D+00  E= 5.272235D+00

 Vector  449  Occ=0.000000D+00  E= 5.303670D+00

 Vector  450  Occ=0.000000D+00  E= 5.350652D+00

 Vector  451  Occ=0.000000D+00  E= 5.422329D+00

 Vector  452  Occ=0.000000D+00  E= 5.498847D+00

 Vector  453  Occ=0.000000D+00  E= 5.512315D+00

 Vector  454  Occ=0.000000D+00  E= 5.610499D+00

 Vector  455  Occ=0.000000D+00  E= 5.635779D+00

 Vector  456  Occ=0.000000D+00  E= 5.685929D+00

 Vector  457  Occ=0.000000D+00  E= 5.708395D+00

 Vector  458  Occ=0.000000D+00  E= 5.782665D+00

 Vector  459  Occ=0.000000D+00  E= 5.829061D+00

 Vector  460  Occ=0.000000D+00  E= 5.913027D+00

 Vector  461  Occ=0.000000D+00  E= 5.922054D+00

 Vector  462  Occ=0.000000D+00  E= 5.964922D+00

 Vector  463  Occ=0.000000D+00  E= 6.120779D+00

 Vector  464  Occ=0.000000D+00  E= 6.794160D+00

 Vector  465  Occ=0.000000D+00  E= 7.929230D+00

 Vector  466  Occ=0.000000D+00  E= 7.979010D+00

 Vector  467  Occ=0.000000D+00  E= 8.054623D+00

 Vector  468  Occ=0.000000D+00  E= 8.098864D+00

 Vector  469  Occ=0.000000D+00  E= 8.160258D+00

 Vector  470  Occ=0.000000D+00  E= 8.208986D+00

 Vector  471  Occ=0.000000D+00  E= 8.229409D+00

 Vector  472  Occ=0.000000D+00  E= 8.321102D+00

 Vector  473  Occ=0.000000D+00  E= 8.471249D+00

 Vector  474  Occ=0.000000D+00  E= 8.516205D+00

 Vector  475  Occ=0.000000D+00  E= 3.457711D+01

 Vector  476  Occ=0.000000D+00  E= 3.463150D+01

 Vector  477  Occ=0.000000D+00  E= 3.469163D+01

 Vector  478  Occ=0.000000D+00  E= 3.473347D+01

 Vector  479  Occ=0.000000D+00  E= 3.480706D+01

 Vector  480  Occ=0.000000D+00  E= 3.483161D+01

 Vector  481  Occ=0.000000D+00  E= 3.483836D+01

 Vector  482  Occ=0.000000D+00  E= 3.496314D+01

 Vector  483  Occ=0.000000D+00  E= 3.507103D+01

 Vector  484  Occ=0.000000D+00  E= 3.514351D+01

     Multipole analysis of the density
     ---------------------------------

     L   x y z        total         alpha         beta         nuclear
     -   - - -        -----         -----         ----         -------
     0   0 0 0     -0.000000    -34.000000    -34.000000     68.000000

     1   1 0 0     -0.000170     -0.000085     -0.000085      0.000000
     1   0 1 0     -0.000000     -0.000000     -0.000000      0.000000
     1   0 0 1     -0.501806     -0.250903     -0.250903     -0.000000

     2   2 0 0    -37.857914   -204.704900   -204.704900    371.551886
     2   1 1 0     -0.000000     -0.000000     -0.000000      0.000000
     2   1 0 1      0.000714      0.000357      0.000357      0.000000
     2   0 2 0    -47.379071    -23.689536    -23.689536      0.000000
     2   0 1 1     -0.000000     -0.000000     -0.000000      0.000000

  Root   1 singlet a              0.091319031 a.u.                2.4849 eV
     Dipole Oscillator Strength                    0.0129833800
  Root   2 singlet a              0.143777014 a.u.                3.9124 eV
     Dipole Oscillator Strength                    0.0035983646
  Root   3 singlet a              0.182287228 a.u.                4.9603 eV
     Dipole Oscillator Strength                    0.0844612604
  Root   4 singlet a              0.202180054 a.u.                5.5016 eV
     Dipole Oscillator Strength                    0.0000000013
  Root   5 singlet a              0.207591190 a.u.                5.6488 eV
     Dipole Oscillator Strength                    1.8336665320
  Root   6 singlet a              0.214071531 a.u.                5.8252 eV
     Dipole Oscillator Strength                    0.0005432037
  Root   7 singlet a              0.220618060 a.u.                6.0033 eV
     Dipole Oscillator Strength                    0.0012504810
  Root   8 singlet a              0.224833652 a.u.                6.1180 eV
     Dipole Oscillator Strength                    0.0000000046
  Root   1 triplet a              0.072130832 a.u.                1.9628 eV
  Root   2 triplet a              0.089683145 a.u.                2.4404 eV
  Root   3 triplet a              0.104006454 a.u.                2.8302 eV
  Root   4 triplet a              0.141874377 a.u.                3.8606 eV
  Root   5 triplet a              0.172195102 a.u.                4.6857 eV
  Root   6 triplet a              0.199572273 a.u.                5.4306 eV
  Root   7 triplet a              0.200476163 a.u.                5.4552 eV
  Root   8 triplet a              0.206425773 a.u.                5.6171 eV
 Total times  cpu:     8762.1s     wall:    10343.9s
