 Output coordinates in angstroms (scale by  1.889725989 to convert to a.u.)

  No.       Tag          Charge          X              Y              Z
 ---- ---------------- ---------- -------------- -------------- --------------
    1 C                    6.0000     0.00000000     0.00000000     2.03530194
    2 C                    6.0000     0.00000000     0.00000000     0.60494794
    3 C                    6.0000     1.21054800     0.00000000    -0.08993006
    4 C                    6.0000    -1.21054800     0.00000000    -0.08993006
    5 C                    6.0000     0.00000000     0.00000000    -2.17318706
    6 C                    6.0000     1.20683900     0.00000000    -1.47845906
    7 C                    6.0000    -1.20683900     0.00000000    -1.47845906
    8 N                    7.0000     0.00000000     0.00000000     3.19749094
    9 H                    1.0000     2.13750800     0.00000000     0.45867294
   10 H                    1.0000    -2.13750800     0.00000000     0.45867294
   11 H                    1.0000     2.14082100     0.00000000    -2.01539206
   12 H                    1.0000    -2.14082100     0.00000000    -2.01539206
   13 H                    1.0000     0.00000000     0.00000000    -3.25070606

         Total DFT energy =     -324.298921076360

                       DFT Final Molecular Orbital Analysis
                       ------------------------------------

 Vector    1  Occ=2.000000D+00  E=-1.414592D+01

 Vector  299  Occ=0.000000D+00  E= 3.831135D+00

 Vector  300  Occ=0.000000D+00  E= 3.908339D+00

 Vector  301  Occ=0.000000D+00  E= 3.925239D+00

 Vector  302  Occ=0.000000D+00  E= 3.969498D+00

 Vector  303  Occ=0.000000D+00  E= 3.973259D+00

 Vector  304  Occ=0.000000D+00  E= 3.997222D+00

 Vector  305  Occ=0.000000D+00  E= 4.007234D+00

 Vector  306  Occ=0.000000D+00  E= 4.019297D+00

 Vector  307  Occ=0.000000D+00  E= 4.021410D+00

 Vector  308  Occ=0.000000D+00  E= 4.117495D+00

 Vector  309  Occ=0.000000D+00  E= 4.140566D+00

 Vector  310  Occ=0.000000D+00  E= 4.170366D+00

 Vector  311  Occ=0.000000D+00  E= 4.202085D+00

 Vector  312  Occ=0.000000D+00  E= 4.233855D+00

 Vector  313  Occ=0.000000D+00  E= 4.237484D+00

 Vector  314  Occ=0.000000D+00  E= 4.268174D+00

 Vector  315  Occ=0.000000D+00  E= 4.275197D+00

 Vector  316  Occ=0.000000D+00  E= 4.278293D+00

 Vector  317  Occ=0.000000D+00  E= 4.303861D+00

 Vector  318  Occ=0.000000D+00  E= 4.305224D+00

 Vector  319  Occ=0.000000D+00  E= 4.306984D+00

 Vector  320  Occ=0.000000D+00  E= 4.397784D+00

 Vector  321  Occ=0.000000D+00  E= 4.436701D+00

 Vector  322  Occ=0.000000D+00  E= 4.472848D+00

 Vector  323  Occ=0.000000D+00  E= 4.486790D+00

 Vector  324  Occ=0.000000D+00  E= 4.503829D+00

 Vector  325  Occ=0.000000D+00  E= 4.560389D+00

 Vector  326  Occ=0.000000D+00  E= 4.587523D+00

 Vector  327  Occ=0.000000D+00  E= 4.587524D+00

 Vector  328  Occ=0.000000D+00  E= 4.618000D+00

 Vector  329  Occ=0.000000D+00  E= 4.641703D+00

 Vector  330  Occ=0.000000D+00  E= 4.749469D+00

 Vector  331  Occ=0.000000D+00  E= 4.757415D+00

 Vector  332  Occ=0.000000D+00  E= 4.770030D+00

 Vector  333  Occ=0.000000D+00  E= 4.778092D+00

 Vector  334  Occ=0.000000D+00  E= 4.797890D+00

 Vector  335  Occ=0.000000D+00  E= 4.822695D+00

 Vector  336  Occ=0.000000D+00  E= 4.825655D+00

 Vector  337  Occ=0.000000D+00  E= 4.861192D+00

 Vector  338  Occ=0.000000D+00  E= 4.919916D+00

 Vector  339  Occ=0.000000D+00  E= 4.926733D+00

 Vector  340  Occ=0.000000D+00  E= 5.027483D+00

 Vector  341  Occ=0.000000D+00  E= 5.071772D+00

 Vector  342  Occ=0.000000D+00  E= 5.150024D+00

 Vector  343  Occ=0.000000D+00  E= 5.222166D+00

 Vector  344  Occ=0.000000D+00  E= 5.231915D+00

 Vector  345  Occ=0.000000D+00  E= 5.275986D+00

 Vector  346  Occ=0.000000D+00  E= 5.286383D+00

 Vector  347  Occ=0.000000D+00  E= 5.377636D+00

 Vector  348  Occ=0.000000D+00  E= 5.417229D+00

 Vector  349  Occ=0.000000D+00  E= 5.419617D+00

 Vector  350  Occ=0.000000D+00  E= 5.436806D+00

 Vector  351  Occ=0.000000D+00  E= 5.467394D+00

 Vector  352  Occ=0.000000D+00  E= 5.606984D+00

 Vector  353  Occ=0.000000D+00  E= 5.629368D+00

 Vector  354  Occ=0.000000D+00  E= 5.669110D+00

 Vector  355  Occ=0.000000D+00  E= 5.794153D+00

 Vector  356  Occ=0.000000D+00  E= 6.051316D+00

 Vector  357  Occ=0.000000D+00  E= 6.137156D+00

 Vector  358  Occ=0.000000D+00  E= 6.160520D+00

 Vector  359  Occ=0.000000D+00  E= 6.208882D+00

 Vector  360  Occ=0.000000D+00  E= 6.442621D+00

 Vector  361  Occ=0.000000D+00  E= 7.610075D+00

 Vector  362  Occ=0.000000D+00  E= 7.955254D+00

 Vector  363  Occ=0.000000D+00  E= 8.019839D+00

 Vector  364  Occ=0.000000D+00  E= 8.088507D+00

 Vector  365  Occ=0.000000D+00  E= 8.213429D+00

 Vector  366  Occ=0.000000D+00  E= 8.264093D+00

 Vector  367  Occ=0.000000D+00  E= 8.381620D+00

 Vector  368  Occ=0.000000D+00  E= 8.545119D+00

 Vector  369  Occ=0.000000D+00  E= 8.878528D+00

 Vector  370  Occ=0.000000D+00  E= 1.219448D+01

 Vector  371  Occ=0.000000D+00  E= 3.461762D+01

 Vector  372  Occ=0.000000D+00  E= 3.466298D+01

 Vector  373  Occ=0.000000D+00  E= 3.471201D+01

 Vector  374  Occ=0.000000D+00  E= 3.484135D+01

 Vector  375  Occ=0.000000D+00  E= 3.484459D+01

 Vector  376  Occ=0.000000D+00  E= 3.491007D+01

 Vector  377  Occ=0.000000D+00  E= 3.513949D+01

 Vector  378  Occ=0.000000D+00  E= 5.175726D+01

     Multipole analysis of the density
     ---------------------------------

     L   x y z        total         alpha         beta         nuclear
     -   - - -        -----         -----         ----         -------
     0   0 0 0     -0.000000    -27.000000    -27.000000     54.000000

     1   1 0 0     -0.000039     -0.000019     -0.000019      0.000000
     1   0 1 0     -0.000000     -0.000000     -0.000000      0.000000
     1   0 0 1     -1.837383     -0.918691     -0.918691      0.000000

     2   2 0 0    -29.280467   -109.928285   -109.928285    190.576103
     2   1 1 0     -0.000000     -0.000000     -0.000000      0.000000
     2   1 0 1      0.000039      0.000019      0.000019      0.000000
     2   0 2 0    -36.188209    -18.094105    -18.094105      0.000000
     2   0 1 1      0.000000      0.000000      0.000000      0.000000

  Root   1 singlet a              0.193340484 a.u.                5.2611 eV
     Dipole Oscillator Strength                    0.0052754557
  Root   2 singlet a              0.221508215 a.u.                6.0275 eV
     Dipole Oscillator Strength                    0.2493585107
  Root   3 singlet a              0.244470886 a.u.                6.6524 eV
     Dipole Oscillator Strength                    0.0000000000
  Root   4 singlet a              0.265381166 a.u.                7.2214 eV
     Dipole Oscillator Strength                    0.6818094730
  Root   5 singlet a              0.266541713 a.u.                7.2530 eV
     Dipole Oscillator Strength                    0.0000000000
  Root   6 singlet a              0.267480755 a.u.                7.2785 eV
     Dipole Oscillator Strength                    0.6067495841
  Root   7 singlet a              0.267508448 a.u.                7.2793 eV
     Dipole Oscillator Strength                    0.0069997681
  Root   8 singlet a              0.274137035 a.u.                7.4597 eV
     Dipole Oscillator Strength                    0.0000000001
  Root   1 triplet a              0.140597263 a.u.                3.8258 eV
  Root   2 triplet a              0.165569927 a.u.                4.5054 eV
  Root   3 triplet a              0.170939678 a.u.                4.6515 eV
  Root   4 triplet a              0.184975310 a.u.                5.0334 eV
  Root   5 triplet a              0.222391957 a.u.                6.0516 eV
  Root   6 triplet a              0.227101809 a.u.                6.1798 eV
  Root   7 triplet a              0.246324569 a.u.                6.7028 eV
  Root   8 triplet a              0.252977857 a.u.                6.8839 eV
 Total times  cpu:     4631.0s     wall:     5492.0s
