 Output coordinates in angstroms (scale by  1.889725989 to convert to a.u.)

  No.       Tag          Charge          X              Y              Z
 ---- ---------------- ---------- -------------- -------------- --------------
    1 C                    6.0000     0.00000000     0.00000000     2.03530194
    2 C                    6.0000     0.00000000     0.00000000     0.60494794
    3 C                    6.0000     1.21054800     0.00000000    -0.08993006
    4 C                    6.0000    -1.21054800     0.00000000    -0.08993006
    5 C                    6.0000     0.00000000     0.00000000    -2.17318706
    6 C                    6.0000     1.20683900     0.00000000    -1.47845906
    7 C                    6.0000    -1.20683900     0.00000000    -1.47845906
    8 N                    7.0000     0.00000000     0.00000000     3.19749094
    9 H                    1.0000     2.13750800     0.00000000     0.45867294
   10 H                    1.0000    -2.13750800     0.00000000     0.45867294
   11 H                    1.0000     2.14082100     0.00000000    -2.01539206
   12 H                    1.0000    -2.14082100     0.00000000    -2.01539206
   13 H                    1.0000     0.00000000     0.00000000    -3.25070606

         Total DFT energy =     -324.294471085058

                       DFT Final Molecular Orbital Analysis
                       ------------------------------------

 Vector    1  Occ=2.000000D+00  E=-1.413931D+01

 Vector  299  Occ=0.000000D+00  E= 3.825743D+00

 Vector  300  Occ=0.000000D+00  E= 3.903121D+00

 Vector  301  Occ=0.000000D+00  E= 3.920129D+00

 Vector  302  Occ=0.000000D+00  E= 3.964398D+00

 Vector  303  Occ=0.000000D+00  E= 3.968166D+00

 Vector  304  Occ=0.000000D+00  E= 3.991830D+00

 Vector  305  Occ=0.000000D+00  E= 4.002129D+00

 Vector  306  Occ=0.000000D+00  E= 4.013570D+00

 Vector  307  Occ=0.000000D+00  E= 4.015708D+00

 Vector  308  Occ=0.000000D+00  E= 4.112438D+00

 Vector  309  Occ=0.000000D+00  E= 4.135417D+00

 Vector  310  Occ=0.000000D+00  E= 4.164916D+00

 Vector  311  Occ=0.000000D+00  E= 4.197292D+00

 Vector  312  Occ=0.000000D+00  E= 4.228780D+00

 Vector  313  Occ=0.000000D+00  E= 4.232240D+00

 Vector  314  Occ=0.000000D+00  E= 4.262716D+00

 Vector  315  Occ=0.000000D+00  E= 4.269642D+00

 Vector  316  Occ=0.000000D+00  E= 4.273045D+00

 Vector  317  Occ=0.000000D+00  E= 4.298881D+00

 Vector  318  Occ=0.000000D+00  E= 4.299759D+00

 Vector  319  Occ=0.000000D+00  E= 4.301512D+00

 Vector  320  Occ=0.000000D+00  E= 4.392217D+00

 Vector  321  Occ=0.000000D+00  E= 4.431281D+00

 Vector  322  Occ=0.000000D+00  E= 4.467779D+00

 Vector  323  Occ=0.000000D+00  E= 4.481850D+00

 Vector  324  Occ=0.000000D+00  E= 4.498521D+00

 Vector  325  Occ=0.000000D+00  E= 4.555526D+00

 Vector  326  Occ=0.000000D+00  E= 4.581925D+00

 Vector  327  Occ=0.000000D+00  E= 4.582394D+00

 Vector  328  Occ=0.000000D+00  E= 4.612696D+00

 Vector  329  Occ=0.000000D+00  E= 4.636684D+00

 Vector  330  Occ=0.000000D+00  E= 4.744112D+00

 Vector  331  Occ=0.000000D+00  E= 4.751552D+00

 Vector  332  Occ=0.000000D+00  E= 4.764376D+00

 Vector  333  Occ=0.000000D+00  E= 4.772676D+00

 Vector  334  Occ=0.000000D+00  E= 4.792414D+00

 Vector  335  Occ=0.000000D+00  E= 4.816906D+00

 Vector  336  Occ=0.000000D+00  E= 4.820206D+00

 Vector  337  Occ=0.000000D+00  E= 4.855527D+00

 Vector  338  Occ=0.000000D+00  E= 4.914343D+00

 Vector  339  Occ=0.000000D+00  E= 4.921269D+00

 Vector  340  Occ=0.000000D+00  E= 5.021777D+00

 Vector  341  Occ=0.000000D+00  E= 5.066597D+00

 Vector  342  Occ=0.000000D+00  E= 5.145389D+00

 Vector  343  Occ=0.000000D+00  E= 5.216571D+00

 Vector  344  Occ=0.000000D+00  E= 5.226419D+00

 Vector  345  Occ=0.000000D+00  E= 5.270704D+00

 Vector  346  Occ=0.000000D+00  E= 5.280676D+00

 Vector  347  Occ=0.000000D+00  E= 5.372128D+00

 Vector  348  Occ=0.000000D+00  E= 5.411508D+00

 Vector  349  Occ=0.000000D+00  E= 5.414100D+00

 Vector  350  Occ=0.000000D+00  E= 5.431345D+00

 Vector  351  Occ=0.000000D+00  E= 5.461913D+00

 Vector  352  Occ=0.000000D+00  E= 5.601467D+00

 Vector  353  Occ=0.000000D+00  E= 5.623978D+00

 Vector  354  Occ=0.000000D+00  E= 5.663561D+00

 Vector  355  Occ=0.000000D+00  E= 5.788670D+00

 Vector  356  Occ=0.000000D+00  E= 6.046466D+00

 Vector  357  Occ=0.000000D+00  E= 6.131699D+00

 Vector  358  Occ=0.000000D+00  E= 6.154657D+00

 Vector  359  Occ=0.000000D+00  E= 6.203303D+00

 Vector  360  Occ=0.000000D+00  E= 6.436795D+00

 Vector  361  Occ=0.000000D+00  E= 7.604446D+00

 Vector  362  Occ=0.000000D+00  E= 7.949474D+00

 Vector  363  Occ=0.000000D+00  E= 8.014014D+00

 Vector  364  Occ=0.000000D+00  E= 8.082688D+00

 Vector  365  Occ=0.000000D+00  E= 8.207516D+00

 Vector  366  Occ=0.000000D+00  E= 8.258248D+00

 Vector  367  Occ=0.000000D+00  E= 8.376160D+00

 Vector  368  Occ=0.000000D+00  E= 8.539212D+00

 Vector  369  Occ=0.000000D+00  E= 8.872747D+00

 Vector  370  Occ=0.000000D+00  E= 1.218819D+01

 Vector  371  Occ=0.000000D+00  E= 3.461121D+01

 Vector  372  Occ=0.000000D+00  E= 3.465657D+01

 Vector  373  Occ=0.000000D+00  E= 3.470563D+01

 Vector  374  Occ=0.000000D+00  E= 3.483503D+01

 Vector  375  Occ=0.000000D+00  E= 3.483819D+01

 Vector  376  Occ=0.000000D+00  E= 3.490368D+01

 Vector  377  Occ=0.000000D+00  E= 3.513311D+01

 Vector  378  Occ=0.000000D+00  E= 5.175061D+01

     Multipole analysis of the density
     ---------------------------------

     L   x y z        total         alpha         beta         nuclear
     -   - - -        -----         -----         ----         -------
     0   0 0 0     -0.000000    -27.000000    -27.000000     54.000000

     1   1 0 0     -0.000036     -0.000018     -0.000018      0.000000
     1   0 1 0     -0.000000     -0.000000     -0.000000      0.000000
     1   0 0 1     -1.835296     -0.917648     -0.917648      0.000000

     2   2 0 0    -29.308734   -109.942419   -109.942419    190.576103
     2   1 1 0     -0.000000     -0.000000     -0.000000      0.000000
     2   1 0 1      0.000035      0.000018      0.000018      0.000000
     2   0 2 0    -36.188472    -18.094236    -18.094236      0.000000
     2   0 1 1      0.000000      0.000000      0.000000      0.000000

  Root   1 singlet a              0.192531221 a.u.                5.2390 eV
     Dipole Oscillator Strength                    0.0051415476
  Root   2 singlet a              0.220980272 a.u.                6.0132 eV
     Dipole Oscillator Strength                    0.2532208816
  Root   3 singlet a              0.243153756 a.u.                6.6166 eV
     Dipole Oscillator Strength                    0.0000000000
  Root   4 singlet a              0.264626802 a.u.                7.2009 eV
     Dipole Oscillator Strength                    0.6706567010
  Root   5 singlet a              0.265533966 a.u.                7.2255 eV
     Dipole Oscillator Strength                    0.0068564747
  Root   6 singlet a              0.265720562 a.u.                7.2306 eV
     Dipole Oscillator Strength                    0.0000000001
  Root   7 singlet a              0.266266498 a.u.                7.2455 eV
     Dipole Oscillator Strength                    0.5918846557
  Root   8 singlet a              0.272253709 a.u.                7.4084 eV
     Dipole Oscillator Strength                    0.0000000001
  Root   1 triplet a              0.140791659 a.u.                3.8311 eV
  Root   2 triplet a              0.165098560 a.u.                4.4926 eV
  Root   3 triplet a              0.170691152 a.u.                4.6447 eV
  Root   4 triplet a              0.184305796 a.u.                5.0152 eV
  Root   5 triplet a              0.222179947 a.u.                6.0458 eV
  Root   6 triplet a              0.226334840 a.u.                6.1589 eV
  Root   7 triplet a              0.246467750 a.u.                6.7067 eV
  Root   8 triplet a              0.252208612 a.u.                6.8629 eV
 Total times  cpu:     4523.5s     wall:     5441.6s
