 Output coordinates in angstroms (scale by  1.889725989 to convert to a.u.)

  No.       Tag          Charge          X              Y              Z
 ---- ---------------- ---------- -------------- -------------- --------------
    1 S                   16.0000     0.00000000     0.00000000     2.25072991
    2 N                    7.0000     1.25941500     0.00000000     1.21360891
    3 N                    7.0000    -1.25941500     0.00000000     1.21360891
    4 C                    6.0000     0.71684800     0.00000000    -0.01347809
    5 C                    6.0000    -0.71684800     0.00000000    -0.01347809
    6 C                    6.0000     1.43200000     0.00000000    -1.23857109
    7 C                    6.0000    -1.43200000     0.00000000    -1.23857109
    8 C                    6.0000     0.71420200     0.00000000    -2.40186009
    9 C                    6.0000    -0.71420200     0.00000000    -2.40186009
   10 H                    1.0000     2.50857100     0.00000000    -1.22998009
   11 H                    1.0000    -2.50857100     0.00000000    -1.22998009
   12 H                    1.0000     1.23108300     0.00000000    -3.34766609
   13 H                    1.0000    -1.23108300     0.00000000    -3.34766609

         Total DFT energy =     -738.406065393278

                       DFT Final Molecular Orbital Analysis
                       ------------------------------------

 Vector    1  Occ=2.000000D+00  E=-8.828843D+01

 Vector  342  Occ=0.000000D+00  E= 4.238873D+00

 Vector  343  Occ=0.000000D+00  E= 4.244249D+00

 Vector  344  Occ=0.000000D+00  E= 4.280295D+00

 Vector  345  Occ=0.000000D+00  E= 4.330187D+00

 Vector  346  Occ=0.000000D+00  E= 4.331156D+00

 Vector  347  Occ=0.000000D+00  E= 4.357554D+00

 Vector  348  Occ=0.000000D+00  E= 4.390592D+00

 Vector  349  Occ=0.000000D+00  E= 4.436928D+00

 Vector  350  Occ=0.000000D+00  E= 4.479151D+00

 Vector  351  Occ=0.000000D+00  E= 4.497167D+00

 Vector  352  Occ=0.000000D+00  E= 4.509963D+00

 Vector  353  Occ=0.000000D+00  E= 4.516278D+00

 Vector  354  Occ=0.000000D+00  E= 4.566861D+00

 Vector  355  Occ=0.000000D+00  E= 4.581281D+00

 Vector  356  Occ=0.000000D+00  E= 4.610061D+00

 Vector  357  Occ=0.000000D+00  E= 4.637099D+00

 Vector  358  Occ=0.000000D+00  E= 4.648214D+00

 Vector  359  Occ=0.000000D+00  E= 4.705219D+00

 Vector  360  Occ=0.000000D+00  E= 4.720724D+00

 Vector  361  Occ=0.000000D+00  E= 4.724085D+00

 Vector  362  Occ=0.000000D+00  E= 4.745262D+00

 Vector  363  Occ=0.000000D+00  E= 4.753265D+00

 Vector  364  Occ=0.000000D+00  E= 4.764212D+00

 Vector  365  Occ=0.000000D+00  E= 4.850029D+00

 Vector  366  Occ=0.000000D+00  E= 4.883963D+00

 Vector  367  Occ=0.000000D+00  E= 4.893500D+00

 Vector  368  Occ=0.000000D+00  E= 4.946675D+00

 Vector  369  Occ=0.000000D+00  E= 4.970109D+00

 Vector  370  Occ=0.000000D+00  E= 4.984657D+00

 Vector  371  Occ=0.000000D+00  E= 5.014558D+00

 Vector  372  Occ=0.000000D+00  E= 5.053535D+00

 Vector  373  Occ=0.000000D+00  E= 5.058461D+00

 Vector  374  Occ=0.000000D+00  E= 5.078677D+00

 Vector  375  Occ=0.000000D+00  E= 5.090524D+00

 Vector  376  Occ=0.000000D+00  E= 5.111139D+00

 Vector  377  Occ=0.000000D+00  E= 5.121094D+00

 Vector  378  Occ=0.000000D+00  E= 5.208529D+00

 Vector  379  Occ=0.000000D+00  E= 5.220219D+00

 Vector  380  Occ=0.000000D+00  E= 5.246271D+00

 Vector  381  Occ=0.000000D+00  E= 5.290567D+00

 Vector  382  Occ=0.000000D+00  E= 5.298815D+00

 Vector  383  Occ=0.000000D+00  E= 5.388617D+00

 Vector  384  Occ=0.000000D+00  E= 5.399057D+00

 Vector  385  Occ=0.000000D+00  E= 5.422964D+00

 Vector  386  Occ=0.000000D+00  E= 5.441264D+00

 Vector  387  Occ=0.000000D+00  E= 5.568964D+00

 Vector  388  Occ=0.000000D+00  E= 5.588423D+00

 Vector  389  Occ=0.000000D+00  E= 5.641918D+00

 Vector  390  Occ=0.000000D+00  E= 5.729252D+00

 Vector  391  Occ=0.000000D+00  E= 5.765197D+00

 Vector  392  Occ=0.000000D+00  E= 5.827466D+00

 Vector  393  Occ=0.000000D+00  E= 5.967531D+00

 Vector  394  Occ=0.000000D+00  E= 5.987667D+00

 Vector  395  Occ=0.000000D+00  E= 6.030362D+00

 Vector  396  Occ=0.000000D+00  E= 6.242673D+00

 Vector  397  Occ=0.000000D+00  E= 6.308310D+00

 Vector  398  Occ=0.000000D+00  E= 6.506233D+00

 Vector  399  Occ=0.000000D+00  E= 6.586268D+00

 Vector  400  Occ=0.000000D+00  E= 7.187675D+00

 Vector  401  Occ=0.000000D+00  E= 7.981076D+00

 Vector  402  Occ=0.000000D+00  E= 8.057370D+00

 Vector  403  Occ=0.000000D+00  E= 8.145949D+00

 Vector  404  Occ=0.000000D+00  E= 8.257819D+00

 Vector  405  Occ=0.000000D+00  E= 8.295132D+00

 Vector  406  Occ=0.000000D+00  E= 8.569529D+00

 Vector  407  Occ=0.000000D+00  E= 9.403288D+00

 Vector  408  Occ=0.000000D+00  E= 1.001983D+01

 Vector  409  Occ=0.000000D+00  E= 1.023726D+01

 Vector  410  Occ=0.000000D+00  E= 1.024592D+01

 Vector  411  Occ=0.000000D+00  E= 1.209995D+01

 Vector  412  Occ=0.000000D+00  E= 1.220270D+01

 Vector  413  Occ=0.000000D+00  E= 2.527098D+01

 Vector  414  Occ=0.000000D+00  E= 3.463385D+01

 Vector  415  Occ=0.000000D+00  E= 3.469207D+01

 Vector  416  Occ=0.000000D+00  E= 3.470955D+01

 Vector  417  Occ=0.000000D+00  E= 3.486705D+01

 Vector  418  Occ=0.000000D+00  E= 3.488896D+01

 Vector  419  Occ=0.000000D+00  E= 3.513283D+01

 Vector  420  Occ=0.000000D+00  E= 5.167968D+01

 Vector  421  Occ=0.000000D+00  E= 5.176931D+01

     Multipole analysis of the density
     ---------------------------------

     L   x y z        total         alpha         beta         nuclear
     -   - - -        -----         -----         ----         -------
     0   0 0 0     -0.000000    -35.000000    -35.000000     70.000000

     1   1 0 0     -0.000225     -0.000113     -0.000113      0.000000
     1   0 1 0     -0.000000     -0.000000     -0.000000      0.000000
     1   0 0 1     -0.731352     -0.365676     -0.365676      0.000000

     2   2 0 0    -43.548788   -155.185265   -155.185265    266.821741
     2   1 1 0      0.000000      0.000000      0.000000      0.000000
     2   1 0 1     -0.000738     -0.000369     -0.000369      0.000000
     2   0 2 0    -44.584384    -22.292192    -22.292192      0.000000
     2   0 1 1      0.000000      0.000000      0.000000      0.000000

  Root   1 singlet a              0.164421442 a.u.                4.4741 eV
     Dipole Oscillator Strength                    0.0741974923
  Root   2 singlet a              0.173845516 a.u.                4.7306 eV
     Dipole Oscillator Strength                    0.2610364071
  Root   3 singlet a              0.173920547 a.u.                4.7326 eV
     Dipole Oscillator Strength                    0.0000000008
  Root   4 singlet a              0.193172139 a.u.                5.2565 eV
     Dipole Oscillator Strength                    0.0003402103
  Root   5 singlet a              0.235415493 a.u.                6.4060 eV
     Dipole Oscillator Strength                    0.3798868002
  Root   6 singlet a              0.241601661 a.u.                6.5743 eV
     Dipole Oscillator Strength                    0.0000000002
  Root   7 singlet a              0.245525872 a.u.                6.6811 eV
     Dipole Oscillator Strength                    0.0000000003
  Root   8 singlet a              0.247587322 a.u.                6.7372 eV
     Dipole Oscillator Strength                    0.0042651092
  Root   1 triplet a              0.100086645 a.u.                2.7235 eV
  Root   2 triplet a              0.117881286 a.u.                3.2077 eV
  Root   3 triplet a              0.150103618 a.u.                4.0845 eV
  Root   4 triplet a              0.160537397 a.u.                4.3684 eV
  Root   5 triplet a              0.177331635 a.u.                4.8254 eV
  Root   6 triplet a              0.180607640 a.u.                4.9146 eV
  Root   7 triplet a              0.204001715 a.u.                5.5512 eV
  Root   8 triplet a              0.208874482 a.u.                5.6838 eV
 Total times  cpu:     6221.8s     wall:     7530.2s
