 Output coordinates in angstroms (scale by  1.889725989 to convert to a.u.)

  No.       Tag          Charge          X              Y              Z
 ---- ---------------- ---------- -------------- -------------- --------------
    1 S                   16.0000     0.00000000     0.00000000     2.25072991
    2 N                    7.0000     1.25941500     0.00000000     1.21360891
    3 N                    7.0000    -1.25941500     0.00000000     1.21360891
    4 C                    6.0000     0.71684800     0.00000000    -0.01347809
    5 C                    6.0000    -0.71684800     0.00000000    -0.01347809
    6 C                    6.0000     1.43200000     0.00000000    -1.23857109
    7 C                    6.0000    -1.43200000     0.00000000    -1.23857109
    8 C                    6.0000     0.71420200     0.00000000    -2.40186009
    9 C                    6.0000    -0.71420200     0.00000000    -2.40186009
   10 H                    1.0000     2.50857100     0.00000000    -1.22998009
   11 H                    1.0000    -2.50857100     0.00000000    -1.22998009
   12 H                    1.0000     1.23108300     0.00000000    -3.34766609
   13 H                    1.0000    -1.23108300     0.00000000    -3.34766609

         Total DFT energy =     -738.404832748662

                       DFT Final Molecular Orbital Analysis
                       ------------------------------------

 Vector    1  Occ=2.000000D+00  E=-8.828670D+01

 Vector  342  Occ=0.000000D+00  E= 4.237599D+00

 Vector  343  Occ=0.000000D+00  E= 4.242929D+00

 Vector  344  Occ=0.000000D+00  E= 4.278900D+00

 Vector  345  Occ=0.000000D+00  E= 4.328908D+00

 Vector  346  Occ=0.000000D+00  E= 4.329750D+00

 Vector  347  Occ=0.000000D+00  E= 4.356161D+00

 Vector  348  Occ=0.000000D+00  E= 4.389295D+00

 Vector  349  Occ=0.000000D+00  E= 4.435591D+00

 Vector  350  Occ=0.000000D+00  E= 4.477760D+00

 Vector  351  Occ=0.000000D+00  E= 4.495934D+00

 Vector  352  Occ=0.000000D+00  E= 4.508540D+00

 Vector  353  Occ=0.000000D+00  E= 4.515005D+00

 Vector  354  Occ=0.000000D+00  E= 4.565538D+00

 Vector  355  Occ=0.000000D+00  E= 4.579981D+00

 Vector  356  Occ=0.000000D+00  E= 4.608749D+00

 Vector  357  Occ=0.000000D+00  E= 4.635771D+00

 Vector  358  Occ=0.000000D+00  E= 4.646865D+00

 Vector  359  Occ=0.000000D+00  E= 4.703865D+00

 Vector  360  Occ=0.000000D+00  E= 4.719376D+00

 Vector  361  Occ=0.000000D+00  E= 4.722716D+00

 Vector  362  Occ=0.000000D+00  E= 4.743864D+00

 Vector  363  Occ=0.000000D+00  E= 4.751878D+00

 Vector  364  Occ=0.000000D+00  E= 4.762833D+00

 Vector  365  Occ=0.000000D+00  E= 4.848628D+00

 Vector  366  Occ=0.000000D+00  E= 4.882602D+00

 Vector  367  Occ=0.000000D+00  E= 4.892058D+00

 Vector  368  Occ=0.000000D+00  E= 4.945273D+00

 Vector  369  Occ=0.000000D+00  E= 4.968696D+00

 Vector  370  Occ=0.000000D+00  E= 4.983195D+00

 Vector  371  Occ=0.000000D+00  E= 5.013091D+00

 Vector  372  Occ=0.000000D+00  E= 5.052165D+00

 Vector  373  Occ=0.000000D+00  E= 5.057093D+00

 Vector  374  Occ=0.000000D+00  E= 5.077305D+00

 Vector  375  Occ=0.000000D+00  E= 5.089231D+00

 Vector  376  Occ=0.000000D+00  E= 5.109750D+00

 Vector  377  Occ=0.000000D+00  E= 5.119666D+00

 Vector  378  Occ=0.000000D+00  E= 5.207222D+00

 Vector  379  Occ=0.000000D+00  E= 5.218800D+00

 Vector  380  Occ=0.000000D+00  E= 5.244873D+00

 Vector  381  Occ=0.000000D+00  E= 5.289194D+00

 Vector  382  Occ=0.000000D+00  E= 5.297530D+00

 Vector  383  Occ=0.000000D+00  E= 5.387232D+00

 Vector  384  Occ=0.000000D+00  E= 5.397632D+00

 Vector  385  Occ=0.000000D+00  E= 5.421576D+00

 Vector  386  Occ=0.000000D+00  E= 5.439822D+00

 Vector  387  Occ=0.000000D+00  E= 5.567606D+00

 Vector  388  Occ=0.000000D+00  E= 5.587066D+00

 Vector  389  Occ=0.000000D+00  E= 5.640486D+00

 Vector  390  Occ=0.000000D+00  E= 5.727815D+00

 Vector  391  Occ=0.000000D+00  E= 5.763851D+00

 Vector  392  Occ=0.000000D+00  E= 5.826100D+00

 Vector  393  Occ=0.000000D+00  E= 5.966139D+00

 Vector  394  Occ=0.000000D+00  E= 5.986333D+00

 Vector  395  Occ=0.000000D+00  E= 6.029086D+00

 Vector  396  Occ=0.000000D+00  E= 6.241233D+00

 Vector  397  Occ=0.000000D+00  E= 6.306886D+00

 Vector  398  Occ=0.000000D+00  E= 6.504906D+00

 Vector  399  Occ=0.000000D+00  E= 6.584830D+00

 Vector  400  Occ=0.000000D+00  E= 7.186359D+00

 Vector  401  Occ=0.000000D+00  E= 7.979631D+00

 Vector  402  Occ=0.000000D+00  E= 8.055913D+00

 Vector  403  Occ=0.000000D+00  E= 8.144493D+00

 Vector  404  Occ=0.000000D+00  E= 8.256346D+00

 Vector  405  Occ=0.000000D+00  E= 8.293665D+00

 Vector  406  Occ=0.000000D+00  E= 8.568041D+00

 Vector  407  Occ=0.000000D+00  E= 9.401883D+00

 Vector  408  Occ=0.000000D+00  E= 1.001831D+01

 Vector  409  Occ=0.000000D+00  E= 1.023576D+01

 Vector  410  Occ=0.000000D+00  E= 1.024439D+01

 Vector  411  Occ=0.000000D+00  E= 1.209839D+01

 Vector  412  Occ=0.000000D+00  E= 1.220114D+01

 Vector  413  Occ=0.000000D+00  E= 2.526944D+01

 Vector  414  Occ=0.000000D+00  E= 3.463226D+01

 Vector  415  Occ=0.000000D+00  E= 3.469047D+01

 Vector  416  Occ=0.000000D+00  E= 3.470796D+01

 Vector  417  Occ=0.000000D+00  E= 3.486545D+01

 Vector  418  Occ=0.000000D+00  E= 3.488737D+01

 Vector  419  Occ=0.000000D+00  E= 3.513124D+01

 Vector  420  Occ=0.000000D+00  E= 5.167804D+01

 Vector  421  Occ=0.000000D+00  E= 5.176767D+01

     Multipole analysis of the density
     ---------------------------------

     L   x y z        total         alpha         beta         nuclear
     -   - - -        -----         -----         ----         -------
     0   0 0 0     -0.000000    -35.000000    -35.000000     70.000000

     1   1 0 0      0.000319      0.000159      0.000159      0.000000
     1   0 1 0     -0.000000     -0.000000     -0.000000      0.000000
     1   0 0 1     -0.730714     -0.365357     -0.365357      0.000000

     2   2 0 0    -43.554088   -155.187914   -155.187914    266.821741
     2   1 1 0      0.000000      0.000000      0.000000      0.000000
     2   1 0 1      0.000366      0.000183      0.000183      0.000000
     2   0 2 0    -44.584507    -22.292254    -22.292254      0.000000
     2   0 1 1      0.000000      0.000000      0.000000      0.000000

  Root   1 singlet a              0.164133996 a.u.                4.4663 eV
     Dipole Oscillator Strength                    0.0736128952
  Root   2 singlet a              0.173607133 a.u.                4.7241 eV
     Dipole Oscillator Strength                    0.0000000004
  Root   3 singlet a              0.173732803 a.u.                4.7275 eV
     Dipole Oscillator Strength                    0.2597817368
  Root   4 singlet a              0.192813408 a.u.                5.2467 eV
     Dipole Oscillator Strength                    0.0003364839
  Root   5 singlet a              0.235143671 a.u.                6.3986 eV
     Dipole Oscillator Strength                    0.3791681249
  Root   6 singlet a              0.241350115 a.u.                6.5675 eV
     Dipole Oscillator Strength                    0.0000000004
  Root   7 singlet a              0.245099937 a.u.                6.6695 eV
     Dipole Oscillator Strength                    0.0000000004
  Root   8 singlet a              0.247023036 a.u.                6.7218 eV
     Dipole Oscillator Strength                    0.0041506620
  Root   1 triplet a              0.100089753 a.u.                2.7236 eV
  Root   2 triplet a              0.117902418 a.u.                3.2083 eV
  Root   3 triplet a              0.149876383 a.u.                4.0783 eV
  Root   4 triplet a              0.160565812 a.u.                4.3692 eV
  Root   5 triplet a              0.177049479 a.u.                4.8178 eV
  Root   6 triplet a              0.180596888 a.u.                4.9143 eV
  Root   7 triplet a              0.203803448 a.u.                5.5458 eV
  Root   8 triplet a              0.208614303 a.u.                5.6767 eV
 Total times  cpu:     6178.2s     wall:     7464.0s
