 Output coordinates in angstroms (scale by  1.889725989 to convert to a.u.)

  No.       Tag          Charge          X              Y              Z
 ---- ---------------- ---------- -------------- -------------- --------------
    1 C                    6.0000     0.00000000     0.00000000     2.64197489
    2 C                    6.0000     1.19437600     0.00000000     1.92997589
    3 C                    6.0000    -1.19437600     0.00000000     1.92997589
    4 C                    6.0000     1.20341600     0.00000000     0.54196189
    5 C                    6.0000    -1.20341600     0.00000000     0.54196189
    6 C                    6.0000     0.00000000     0.00000000    -0.18532411
    7 C                    6.0000     1.24959500     0.00000000    -2.27599611
    8 C                    6.0000    -1.24959500     0.00000000    -2.27599611
    9 N                    7.0000     0.00000000     0.00000000    -1.55759511
   10 H                    1.0000     2.14804800     0.00000000     0.02767389
   11 H                    1.0000    -2.14804800     0.00000000     0.02767389
   12 H                    1.0000     2.13613300     0.00000000     2.45604889
   13 H                    1.0000    -2.13613300     0.00000000     2.45604889
   14 H                    1.0000     0.00000000     0.00000000     3.71868189
   15 H                    1.0000     1.04258700     0.00000000    -3.34134711
   16 H                    1.0000    -1.04258700     0.00000000    -3.34134711
   17 H                    1.0000     1.85106500    -0.88349000    -2.04786811
   18 H                    1.0000     1.85106500     0.88349000    -2.04786811
   19 H                    1.0000    -1.85106500     0.88349000    -2.04786811
   20 H                    1.0000    -1.85106500    -0.88349000    -2.04786811

         Total DFT energy =     -365.997885349076

                       DFT Final Molecular Orbital Analysis
                       ------------------------------------

 Vector    1  Occ=2.000000D+00  E=-1.415450D+01

 Vector  394  Occ=0.000000D+00  E= 4.186690D+00

 Vector  395  Occ=0.000000D+00  E= 4.220045D+00

 Vector  396  Occ=0.000000D+00  E= 4.221223D+00

 Vector  397  Occ=0.000000D+00  E= 4.247398D+00

 Vector  398  Occ=0.000000D+00  E= 4.286427D+00

 Vector  399  Occ=0.000000D+00  E= 4.288017D+00

 Vector  400  Occ=0.000000D+00  E= 4.308387D+00

 Vector  401  Occ=0.000000D+00  E= 4.318332D+00

 Vector  402  Occ=0.000000D+00  E= 4.331737D+00

 Vector  403  Occ=0.000000D+00  E= 4.348259D+00

 Vector  404  Occ=0.000000D+00  E= 4.361647D+00

 Vector  405  Occ=0.000000D+00  E= 4.382134D+00

 Vector  406  Occ=0.000000D+00  E= 4.417113D+00

 Vector  407  Occ=0.000000D+00  E= 4.476081D+00

 Vector  408  Occ=0.000000D+00  E= 4.504209D+00

 Vector  409  Occ=0.000000D+00  E= 4.519458D+00

 Vector  410  Occ=0.000000D+00  E= 4.526892D+00

 Vector  411  Occ=0.000000D+00  E= 4.559067D+00

 Vector  412  Occ=0.000000D+00  E= 4.601945D+00

 Vector  413  Occ=0.000000D+00  E= 4.633934D+00

 Vector  414  Occ=0.000000D+00  E= 4.661323D+00

 Vector  415  Occ=0.000000D+00  E= 4.671183D+00

 Vector  416  Occ=0.000000D+00  E= 4.689195D+00

 Vector  417  Occ=0.000000D+00  E= 4.691876D+00

 Vector  418  Occ=0.000000D+00  E= 4.707971D+00

 Vector  419  Occ=0.000000D+00  E= 4.762539D+00

 Vector  420  Occ=0.000000D+00  E= 4.789845D+00

 Vector  421  Occ=0.000000D+00  E= 4.863590D+00

 Vector  422  Occ=0.000000D+00  E= 4.900901D+00

 Vector  423  Occ=0.000000D+00  E= 4.949483D+00

 Vector  424  Occ=0.000000D+00  E= 4.974873D+00

 Vector  425  Occ=0.000000D+00  E= 4.980805D+00

 Vector  426  Occ=0.000000D+00  E= 5.004478D+00

 Vector  427  Occ=0.000000D+00  E= 5.005964D+00

 Vector  428  Occ=0.000000D+00  E= 5.081257D+00

 Vector  429  Occ=0.000000D+00  E= 5.084266D+00

 Vector  430  Occ=0.000000D+00  E= 5.127657D+00

 Vector  431  Occ=0.000000D+00  E= 5.133216D+00

 Vector  432  Occ=0.000000D+00  E= 5.194627D+00

 Vector  433  Occ=0.000000D+00  E= 5.255206D+00

 Vector  434  Occ=0.000000D+00  E= 5.259545D+00

 Vector  435  Occ=0.000000D+00  E= 5.300882D+00

 Vector  436  Occ=0.000000D+00  E= 5.321576D+00

 Vector  437  Occ=0.000000D+00  E= 5.340709D+00

 Vector  438  Occ=0.000000D+00  E= 5.381239D+00

 Vector  439  Occ=0.000000D+00  E= 5.411527D+00

 Vector  440  Occ=0.000000D+00  E= 5.509277D+00

 Vector  441  Occ=0.000000D+00  E= 5.520817D+00

 Vector  442  Occ=0.000000D+00  E= 5.555275D+00

 Vector  443  Occ=0.000000D+00  E= 5.653185D+00

 Vector  444  Occ=0.000000D+00  E= 5.733319D+00

 Vector  445  Occ=0.000000D+00  E= 5.801893D+00

 Vector  446  Occ=0.000000D+00  E= 5.868663D+00

 Vector  447  Occ=0.000000D+00  E= 5.889552D+00

 Vector  448  Occ=0.000000D+00  E= 5.922899D+00

 Vector  449  Occ=0.000000D+00  E= 6.018318D+00

 Vector  450  Occ=0.000000D+00  E= 6.049926D+00

 Vector  451  Occ=0.000000D+00  E= 6.187152D+00

 Vector  452  Occ=0.000000D+00  E= 6.253407D+00

 Vector  453  Occ=0.000000D+00  E= 6.362646D+00

 Vector  454  Occ=0.000000D+00  E= 6.536089D+00

 Vector  455  Occ=0.000000D+00  E= 7.037393D+00

 Vector  456  Occ=0.000000D+00  E= 7.993377D+00

 Vector  457  Occ=0.000000D+00  E= 8.073593D+00

 Vector  458  Occ=0.000000D+00  E= 8.091532D+00

 Vector  459  Occ=0.000000D+00  E= 8.139052D+00

 Vector  460  Occ=0.000000D+00  E= 8.180534D+00

 Vector  461  Occ=0.000000D+00  E= 8.302740D+00

 Vector  462  Occ=0.000000D+00  E= 8.339319D+00

 Vector  463  Occ=0.000000D+00  E= 8.577892D+00

 Vector  464  Occ=0.000000D+00  E= 1.230017D+01

 Vector  465  Occ=0.000000D+00  E= 3.465677D+01

 Vector  466  Occ=0.000000D+00  E= 3.471250D+01

 Vector  467  Occ=0.000000D+00  E= 3.473347D+01

 Vector  468  Occ=0.000000D+00  E= 3.474738D+01

 Vector  469  Occ=0.000000D+00  E= 3.479229D+01

 Vector  470  Occ=0.000000D+00  E= 3.492922D+01

 Vector  471  Occ=0.000000D+00  E= 3.493397D+01

 Vector  472  Occ=0.000000D+00  E= 3.515876D+01

 Vector  473  Occ=0.000000D+00  E= 5.188892D+01

     Multipole analysis of the density
     ---------------------------------

     L   x y z        total         alpha         beta         nuclear
     -   - - -        -----         -----         ----         -------
     0   0 0 0     -0.000000    -33.000000    -33.000000     66.000000

     1   1 0 0     -0.000015     -0.000007     -0.000007      0.000000
     1   0 1 0     -0.000286     -0.000143     -0.000143      0.000000
     1   0 0 1     -0.854258     -0.427129     -0.427129      0.000000

     2   2 0 0    -37.682799   -175.019883   -175.019883    312.356966
     2   1 1 0     -0.000063     -0.000032     -0.000032      0.000000
     2   1 0 1     -0.000033     -0.000017     -0.000017      0.000000
     2   0 2 0    -43.924550    -27.537096    -27.537096     11.149642
     2   0 1 1      0.001082      0.000541      0.000541      0.000000

  Root   1 singlet a              0.173265253 a.u.                4.5914 eV
     Dipole Oscillator Strength                    0.0566938116
  Root   2 singlet a              0.184142306 a.u.                5.0108 eV
     Dipole Oscillator Strength                    0.0237771648
  Root   3 singlet a              0.207770687 a.u.                5.4417 eV
     Dipole Oscillator Strength                    0.3581819053
  Root   4 singlet a              0.213703072 a.u.                5.8152 eV
     Dipole Oscillator Strength                    0.0000001949
  Root   5 singlet a              0.215953526 a.u.                5.8764 eV
     Dipole Oscillator Strength                    0.0047834020
  Root   6 singlet a              0.227138357 a.u.                6.1808 eV
     Dipole Oscillator Strength                    0.0009081580
  Root   7 singlet a              0.235968226 a.u.                6.4210 eV
     Dipole Oscillator Strength                    0.0278691927
  Root   8 singlet a              0.241680447 a.u.                6.5765 eV
     Dipole Oscillator Strength                    0.0000000350
  Root   1 triplet a              0.138329223 a.u.                3.7641 eV
  Root   2 triplet a              0.141887102 a.u.                3.8609 eV
  Root   3 triplet a              0.168373796 a.u.                4.5817 eV
  Root   4 triplet a              0.181216141 a.u.                4.9311 eV
  Root   5 triplet a              0.202872410 a.u.                5.5204 eV
  Root   6 triplet a              0.211450723 a.u.                5.7539 eV
  Root   7 triplet a              0.214586468 a.u.                5.8392 eV
  Root   8 triplet a              0.222641111 a.u.                6.0584 eV
 Total times  cpu:     7940.5s     wall:     9454.3s
