 Output coordinates in angstroms (scale by  1.889725989 to convert to a.u.)

  No.       Tag          Charge          X              Y              Z
 ---- ---------------- ---------- -------------- -------------- --------------
    1 C                    6.0000     2.33386786    -0.16711694     0.00000000
    2 C                    6.0000     3.38236786     0.92477106     0.00000000
    3 C                    6.0000    -0.04698814    -0.66266694     0.00000000
    4 C                    6.0000    -1.34903614     0.12666206     0.00000000
    5 C                    6.0000    -3.78548214     0.01590906     0.00000000
    6 O                    8.0000     2.60698486    -1.37233494     0.00000000
    7 O                    8.0000    -1.37102714     1.36323106     0.00000000
    8 N                    7.0000     1.04585386     0.27122406     0.00000000
    9 N                    7.0000    -2.47963214    -0.62033594     0.00000000
   10 H                    1.0000     0.78911786     1.25285406     0.00000000
   11 H                    1.0000     3.28123186     1.55964206    -0.88500900
   12 H                    1.0000     3.28123186     1.55964206     0.88500900
   13 H                    1.0000     4.36699286     0.45859106     0.00000000
   14 H                    1.0000    -0.00121914    -1.31848494    -0.87946600
   15 H                    1.0000    -0.00121914    -1.31848494     0.87946600
   16 H                    1.0000    -2.41261214    -1.62882794     0.00000000
   17 H                    1.0000    -3.90663914     0.64379706    -0.88555200
   18 H                    1.0000    -3.90663914     0.64379706     0.88555200
   19 H                    1.0000    -4.54983514    -0.76126094     0.00000000

         Total DFT energy =     -456.326771453660

                       DFT Final Molecular Orbital Analysis
                       ------------------------------------

 Vector    1  Occ=2.000000D+00  E=-1.888158D+01

 Vector  399  Occ=0.000000D+00  E= 4.936870D+00

 Vector  400  Occ=0.000000D+00  E= 4.936923D+00

 Vector  401  Occ=0.000000D+00  E= 4.982941D+00

 Vector  402  Occ=0.000000D+00  E= 5.010733D+00

 Vector  403  Occ=0.000000D+00  E= 5.040790D+00

 Vector  404  Occ=0.000000D+00  E= 5.060630D+00

 Vector  405  Occ=0.000000D+00  E= 5.083644D+00

 Vector  406  Occ=0.000000D+00  E= 5.097101D+00

 Vector  407  Occ=0.000000D+00  E= 5.110709D+00

 Vector  408  Occ=0.000000D+00  E= 5.124520D+00

 Vector  409  Occ=0.000000D+00  E= 5.155298D+00

 Vector  410  Occ=0.000000D+00  E= 5.175206D+00

 Vector  411  Occ=0.000000D+00  E= 5.224807D+00

 Vector  412  Occ=0.000000D+00  E= 5.231417D+00

 Vector  413  Occ=0.000000D+00  E= 5.257565D+00

 Vector  414  Occ=0.000000D+00  E= 5.319540D+00

 Vector  415  Occ=0.000000D+00  E= 5.324048D+00

 Vector  416  Occ=0.000000D+00  E= 5.334468D+00

 Vector  417  Occ=0.000000D+00  E= 5.356383D+00

 Vector  418  Occ=0.000000D+00  E= 5.361197D+00

 Vector  419  Occ=0.000000D+00  E= 5.383135D+00

 Vector  420  Occ=0.000000D+00  E= 5.467301D+00

 Vector  421  Occ=0.000000D+00  E= 5.545860D+00

 Vector  422  Occ=0.000000D+00  E= 5.595048D+00

 Vector  423  Occ=0.000000D+00  E= 5.646957D+00

 Vector  424  Occ=0.000000D+00  E= 5.674731D+00

 Vector  425  Occ=0.000000D+00  E= 5.711771D+00

 Vector  426  Occ=0.000000D+00  E= 5.747162D+00

 Vector  427  Occ=0.000000D+00  E= 5.791501D+00

 Vector  428  Occ=0.000000D+00  E= 5.816014D+00

 Vector  429  Occ=0.000000D+00  E= 5.861879D+00

 Vector  430  Occ=0.000000D+00  E= 5.979417D+00

 Vector  431  Occ=0.000000D+00  E= 6.086671D+00

 Vector  432  Occ=0.000000D+00  E= 6.090921D+00

 Vector  433  Occ=0.000000D+00  E= 6.097807D+00

 Vector  434  Occ=0.000000D+00  E= 6.167342D+00

 Vector  435  Occ=0.000000D+00  E= 6.208133D+00

 Vector  436  Occ=0.000000D+00  E= 6.229998D+00

 Vector  437  Occ=0.000000D+00  E= 6.317407D+00

 Vector  438  Occ=0.000000D+00  E= 6.354225D+00

 Vector  439  Occ=0.000000D+00  E= 6.374413D+00

 Vector  440  Occ=0.000000D+00  E= 6.443322D+00

 Vector  441  Occ=0.000000D+00  E= 6.469950D+00

 Vector  442  Occ=0.000000D+00  E= 6.485546D+00

 Vector  443  Occ=0.000000D+00  E= 6.498805D+00

 Vector  444  Occ=0.000000D+00  E= 6.571804D+00

 Vector  445  Occ=0.000000D+00  E= 6.585399D+00

 Vector  446  Occ=0.000000D+00  E= 6.640291D+00

 Vector  447  Occ=0.000000D+00  E= 6.774108D+00

 Vector  448  Occ=0.000000D+00  E= 6.788436D+00

 Vector  449  Occ=0.000000D+00  E= 6.844572D+00

 Vector  450  Occ=0.000000D+00  E= 6.860830D+00

 Vector  451  Occ=0.000000D+00  E= 6.883556D+00

 Vector  452  Occ=0.000000D+00  E= 6.897941D+00

 Vector  453  Occ=0.000000D+00  E= 6.953122D+00

 Vector  454  Occ=0.000000D+00  E= 6.973067D+00

 Vector  455  Occ=0.000000D+00  E= 7.151058D+00

 Vector  456  Occ=0.000000D+00  E= 7.166519D+00

 Vector  457  Occ=0.000000D+00  E= 7.392240D+00

 Vector  458  Occ=0.000000D+00  E= 7.454034D+00

 Vector  459  Occ=0.000000D+00  E= 8.015457D+00

 Vector  460  Occ=0.000000D+00  E= 8.077835D+00

 Vector  461  Occ=0.000000D+00  E= 8.093270D+00

 Vector  462  Occ=0.000000D+00  E= 8.238143D+00

 Vector  463  Occ=0.000000D+00  E= 8.277902D+00

 Vector  464  Occ=0.000000D+00  E= 8.469958D+00

 Vector  465  Occ=0.000000D+00  E= 8.495532D+00

 Vector  466  Occ=0.000000D+00  E= 1.215630D+01

 Vector  467  Occ=0.000000D+00  E= 1.221736D+01

 Vector  468  Occ=0.000000D+00  E= 1.683471D+01

 Vector  469  Occ=0.000000D+00  E= 1.684847D+01

 Vector  470  Occ=0.000000D+00  E= 3.468811D+01

 Vector  471  Occ=0.000000D+00  E= 3.471328D+01

 Vector  472  Occ=0.000000D+00  E= 3.475507D+01

 Vector  473  Occ=0.000000D+00  E= 3.492127D+01

 Vector  474  Occ=0.000000D+00  E= 3.493526D+01

 Vector  475  Occ=0.000000D+00  E= 5.175626D+01

 Vector  476  Occ=0.000000D+00  E= 5.181298D+01

 Vector  477  Occ=0.000000D+00  E= 7.185048D+01

 Vector  478  Occ=0.000000D+00  E= 7.186459D+01

     Multipole analysis of the density
     ---------------------------------

     L   x y z        total         alpha         beta         nuclear
     -   - - -        -----         -----         ----         -------
     0   0 0 0     -0.000000    -35.000000    -35.000000     70.000000

     1   1 0 0     -1.342447     -0.671224     -0.671224     -0.000000
     1   0 1 0     -0.071496     -0.035748     -0.035748      0.000000
     1   0 0 1     -0.000000     -0.000000     -0.000000      0.000000

     2   2 0 0    -36.298365   -762.025162   -762.025162   1487.751959
     2   1 1 0     11.684272      5.842191      5.842191     -0.000110
     2   1 0 1     -0.000000     -0.000000     -0.000000      0.000000
     2   0 2 0    -43.174365   -120.428637   -120.428637    197.682909
     2   0 1 1     -0.000000     -0.000000     -0.000000      0.000000

  Root   1 singlet a              0.202763364 a.u.                5.5175 eV
     Dipole Oscillator Strength                    0.0012120761
  Root   2 singlet a              0.210854370 a.u.                5.7376 eV
     Dipole Oscillator Strength                    0.0004606070
  Root   3 singlet a              0.236015382 a.u.                6.4223 eV
     Dipole Oscillator Strength                    0.0323212405
  Root   4 singlet a              0.236182926 a.u.                6.4269 eV
     Dipole Oscillator Strength                    0.0011063977
  Root   5 singlet a              0.245083202 a.u.                6.6691 eV
     Dipole Oscillator Strength                    0.0199232410
  Root   6 singlet a              0.246489758 a.u.                6.7073 eV
     Dipole Oscillator Strength                    0.0010886926
  Root   7 singlet a              0.254206067 a.u.                6.9173 eV
     Dipole Oscillator Strength                    0.0056133164
  Root   8 singlet a              0.260305431 a.u.                7.0833 eV
     Dipole Oscillator Strength                    0.1210822544
  Root   9 singlet a              0.263755774 a.u.                7.1772 eV
     Dipole Oscillator Strength                    0.0020130641
  Root  10 singlet a              0.268679584 a.u.                7.3111 eV
     Dipole Oscillator Strength                    0.0001628352
  Root  11 singlet a              0.269313490 a.u.                7.3284 eV
     Dipole Oscillator Strength                    0.2361928390
  Root  12 singlet a              0.272423138 a.u.                7.4130 eV
     Dipole Oscillator Strength                    0.1425982160
  Root  13 singlet a              0.275050100 a.u.                7.4845 eV
     Dipole Oscillator Strength                    0.0331023566
  Root  14 singlet a              0.282775358 a.u.                7.6947 eV
     Dipole Oscillator Strength                    0.0369855144
  Root  15 singlet a              0.283100724 a.u.                7.7036 eV
     Dipole Oscillator Strength                    0.0078782926
  Root  16 singlet a              0.288071365 a.u.                7.8388 eV
     Dipole Oscillator Strength                    0.0015652905
  Root  17 singlet a              0.290133117 a.u.                7.8949 eV
     Dipole Oscillator Strength                    0.0154382874
  Root  18 singlet a              0.292909592 a.u.                7.9705 eV
     Dipole Oscillator Strength                    0.0014089945
  Root  19 singlet a              0.294221026 a.u.                8.0062 eV
     Dipole Oscillator Strength                    0.0224920310
  Root  20 singlet a              0.296247503 a.u.                8.0613 eV
     Dipole Oscillator Strength                    0.0015737538
  Root  21 singlet a              0.299265569 a.u.                8.1434 eV
     Dipole Oscillator Strength                    0.0027682713
  Root  22 singlet a              0.299465473 a.u.                8.1489 eV
     Dipole Oscillator Strength                    0.0880446205
  Root  23 singlet a              0.302138056 a.u.                8.2216 eV
     Dipole Oscillator Strength                    0.0000004047
  Root  24 singlet a              0.306231251 a.u.                8.3330 eV
     Dipole Oscillator Strength                    0.0145196722
  Root  25 singlet a              0.309985946 a.u.                8.4352 eV
     Dipole Oscillator Strength                    0.0000462003
  Root  26 singlet a              0.311106024 a.u.                8.4656 eV
     Dipole Oscillator Strength                    0.0411386202
  Root  27 singlet a              0.314109005 a.u.                8.5473 eV
     Dipole Oscillator Strength                    0.0019925856
  Root  28 singlet a              0.314856097 a.u.                8.5677 eV
     Dipole Oscillator Strength                    0.0137328391
  Root  29 singlet a              0.315957767 a.u.                8.5977 eV
     Dipole Oscillator Strength                    0.0207848399
  Root  30 singlet a              0.318175579 a.u.                8.6580 eV
     Dipole Oscillator Strength                    0.0000305880
  Root  31 singlet a              0.319617256 a.u.                8.6972 eV
     Dipole Oscillator Strength                    0.0001900489
  Root  32 singlet a              0.325310679 a.u.                8.8522 eV
     Dipole Oscillator Strength                    0.0280775237
  Root  33 singlet a              0.325745073 a.u.                8.8640 eV
     Dipole Oscillator Strength                    0.0003183309
  Root  34 singlet a              0.326355517 a.u.                8.8806 eV
     Dipole Oscillator Strength                    0.0439869111
  Root  35 singlet a              0.330439920 a.u.                8.9917 eV
     Dipole Oscillator Strength                    0.0056300956
  Root  36 singlet a              0.331484376 a.u.                9.0202 eV
     Dipole Oscillator Strength                    0.0023210049
  Root  37 singlet a              0.331821229 a.u.                9.0293 eV
     Dipole Oscillator Strength                    0.0001021334
  Root  38 singlet a              0.332812730 a.u.                9.0563 eV
     Dipole Oscillator Strength                    0.0048118921
  Root  39 singlet a              0.334972133 a.u.                9.1151 eV
     Dipole Oscillator Strength                    0.0002845769
  Root  40 singlet a              0.335984808 a.u.                9.1426 eV
     Dipole Oscillator Strength                    0.0473367705
  Root   1 triplet a              0.183637533 a.u.                4.9970 eV
  Root   2 triplet a              0.192274485 a.u.                5.2321 eV
  Root   3 triplet a              0.192520040 a.u.                5.2387 eV
  Root   4 triplet a              0.193357479 a.u.                5.2615 eV
  Root   5 triplet a              0.231567145 a.u.                6.3013 eV
  Root   6 triplet a              0.232520811 a.u.                6.3272 eV
  Root   7 triplet a              0.241497629 a.u.                6.5715 eV
  Root   8 triplet a              0.242869968 a.u.                6.6088 eV
  Root   9 triplet a              0.250034195 a.u.                6.8038 eV
  Root  10 triplet a              0.258758346 a.u.                7.0412 eV
  Root  11 triplet a              0.259501745 a.u.                7.0614 eV
  Root  12 triplet a              0.267322714 a.u.                7.2742 eV
  Root  13 triplet a              0.267877124 a.u.                7.2893 eV
  Root  14 triplet a              0.276209425 a.u.                7.5160 eV
  Root  15 triplet a              0.279980118 a.u.                7.6186 eV
  Root  16 triplet a              0.280732543 a.u.                7.6391 eV
  Root  17 triplet a              0.284469772 a.u.                7.7408 eV
  Root  18 triplet a              0.285909169 a.u.                7.7800 eV
  Root  19 triplet a              0.287570683 a.u.                7.8252 eV
  Root  20 triplet a              0.291692735 a.u.                7.9374 eV
  Root  21 triplet a              0.291783775 a.u.                7.9398 eV
  Root  22 triplet a              0.291899516 a.u.                7.9430 eV
  Root  23 triplet a              0.293302055 a.u.                7.9812 eV
  Root  24 triplet a              0.297274949 a.u.                8.0893 eV
  Root  25 triplet a              0.300629160 a.u.                8.1805 eV
  Root  26 triplet a              0.303993707 a.u.                8.2721 eV
  Root  27 triplet a              0.306719726 a.u.                8.3463 eV
  Root  28 triplet a              0.308068560 a.u.                8.3830 eV
  Root  29 triplet a              0.308307465 a.u.                8.3895 eV
  Root  30 triplet a              0.311217625 a.u.                8.4687 eV
  Root  31 triplet a              0.312509253 a.u.                8.5038 eV
  Root  32 triplet a              0.314246517 a.u.                8.5511 eV
  Root  33 triplet a              0.317265485 a.u.                8.6332 eV
  Root  34 triplet a              0.321106729 a.u.                8.7378 eV
  Root  35 triplet a              0.322198229 a.u.                8.7675 eV
  Root  36 triplet a              0.323861638 a.u.                8.8127 eV
  Root  37 triplet a              0.325244038 a.u.                8.8503 eV
  Root  38 triplet a              0.327157329 a.u.                8.9024 eV
  Root  39 triplet a              0.328704256 a.u.                8.9445 eV
  Root  40 triplet a              0.329448480 a.u.                8.9648 eV
 Total times  cpu:    13715.8s     wall:    16068.7s
