 Output coordinates in angstroms (scale by  1.889725989 to convert to a.u.)

  No.       Tag          Charge          X              Y              Z
 ---- ---------------- ---------- -------------- -------------- --------------
    1 C                    6.0000     0.92580294    -0.00004004     0.10564201
    2 C                    6.0000     0.19246894     1.20760896     0.07825801
    3 C                    6.0000     0.19263294    -1.20780604     0.07830601
    4 C                    6.0000    -1.19565306    -1.20791004     0.02819101
    5 C                    6.0000    -1.19582506     1.20754396     0.02816101
    6 C                    6.0000    -1.90660806    -0.00024604     0.00745401
    7 C                    6.0000    -3.33807006    -0.00022104    -0.04947499
    8 C                    6.0000     3.01552294     1.23359796    -0.12015099
    9 C                    6.0000     3.01577394    -1.23325204    -0.12027399
   10 N                    7.0000     2.31303094     0.00008096     0.20366501
   11 N                    7.0000    -4.52114706     0.00045596    -0.09593299
   12 H                    1.0000    -1.73520806     2.15137796     0.00472101
   13 H                    1.0000     0.70196494     2.16404796     0.08417201
   14 H                    1.0000     0.70226494    -2.16419104     0.08421201
   15 H                    1.0000    -1.73488206    -2.15183604     0.00481901
   16 H                    1.0000     2.73278994     2.02738996     0.57520301
   17 H                    1.0000     2.82356794     1.57907496    -1.14689499
   18 H                    1.0000     4.08632794     1.06282996    -0.00238099
   19 H                    1.0000     2.73397494    -2.02694504     0.57557901
   20 H                    1.0000     2.82313094    -1.57917304    -1.14674199
   21 H                    1.0000     4.08660894    -1.06198804    -0.00348499

         Total DFT energy =     -458.191710661113

                       DFT Final Molecular Orbital Analysis
                       ------------------------------------

 Vector    1  Occ=2.000000D+00  E=-1.417909D+01

 Vector  469  Occ=0.000000D+00  E= 4.601621D+00

 Vector  470  Occ=0.000000D+00  E= 4.624824D+00

 Vector  471  Occ=0.000000D+00  E= 4.631589D+00

 Vector  472  Occ=0.000000D+00  E= 4.664335D+00

 Vector  473  Occ=0.000000D+00  E= 4.717149D+00

 Vector  474  Occ=0.000000D+00  E= 4.730440D+00

 Vector  475  Occ=0.000000D+00  E= 4.740884D+00

 Vector  476  Occ=0.000000D+00  E= 4.763197D+00

 Vector  477  Occ=0.000000D+00  E= 4.786832D+00

 Vector  478  Occ=0.000000D+00  E= 4.803361D+00

 Vector  479  Occ=0.000000D+00  E= 4.811277D+00

 Vector  480  Occ=0.000000D+00  E= 4.820581D+00

 Vector  481  Occ=0.000000D+00  E= 4.821174D+00

 Vector  482  Occ=0.000000D+00  E= 4.829130D+00

 Vector  483  Occ=0.000000D+00  E= 4.850013D+00

 Vector  484  Occ=0.000000D+00  E= 4.880425D+00

 Vector  485  Occ=0.000000D+00  E= 4.896761D+00

 Vector  486  Occ=0.000000D+00  E= 4.931165D+00

 Vector  487  Occ=0.000000D+00  E= 4.948500D+00

 Vector  488  Occ=0.000000D+00  E= 4.980860D+00

 Vector  489  Occ=0.000000D+00  E= 5.019730D+00

 Vector  490  Occ=0.000000D+00  E= 5.022791D+00

 Vector  491  Occ=0.000000D+00  E= 5.080380D+00

 Vector  492  Occ=0.000000D+00  E= 5.105630D+00

 Vector  493  Occ=0.000000D+00  E= 5.119733D+00

 Vector  494  Occ=0.000000D+00  E= 5.133828D+00

 Vector  495  Occ=0.000000D+00  E= 5.152057D+00

 Vector  496  Occ=0.000000D+00  E= 5.209403D+00

 Vector  497  Occ=0.000000D+00  E= 5.219246D+00

 Vector  498  Occ=0.000000D+00  E= 5.279782D+00

 Vector  499  Occ=0.000000D+00  E= 5.288226D+00

 Vector  500  Occ=0.000000D+00  E= 5.299674D+00

 Vector  501  Occ=0.000000D+00  E= 5.323285D+00

 Vector  502  Occ=0.000000D+00  E= 5.372553D+00

 Vector  503  Occ=0.000000D+00  E= 5.406281D+00

 Vector  504  Occ=0.000000D+00  E= 5.421596D+00

 Vector  505  Occ=0.000000D+00  E= 5.480749D+00

 Vector  506  Occ=0.000000D+00  E= 5.502327D+00

 Vector  507  Occ=0.000000D+00  E= 5.546236D+00

 Vector  508  Occ=0.000000D+00  E= 5.613230D+00

 Vector  509  Occ=0.000000D+00  E= 5.635929D+00

 Vector  510  Occ=0.000000D+00  E= 5.705483D+00

 Vector  511  Occ=0.000000D+00  E= 5.778968D+00

 Vector  512  Occ=0.000000D+00  E= 5.781926D+00

 Vector  513  Occ=0.000000D+00  E= 5.792176D+00

 Vector  514  Occ=0.000000D+00  E= 5.867285D+00

 Vector  515  Occ=0.000000D+00  E= 5.918381D+00

 Vector  516  Occ=0.000000D+00  E= 6.021912D+00

 Vector  517  Occ=0.000000D+00  E= 6.075587D+00

 Vector  518  Occ=0.000000D+00  E= 6.094493D+00

 Vector  519  Occ=0.000000D+00  E= 6.191147D+00

 Vector  520  Occ=0.000000D+00  E= 6.199688D+00

 Vector  521  Occ=0.000000D+00  E= 6.294706D+00

 Vector  522  Occ=0.000000D+00  E= 6.414180D+00

 Vector  523  Occ=0.000000D+00  E= 6.459505D+00

 Vector  524  Occ=0.000000D+00  E= 6.856598D+00

 Vector  525  Occ=0.000000D+00  E= 7.509846D+00

 Vector  526  Occ=0.000000D+00  E= 8.016585D+00

 Vector  527  Occ=0.000000D+00  E= 8.038711D+00

 Vector  528  Occ=0.000000D+00  E= 8.085025D+00

 Vector  529  Occ=0.000000D+00  E= 8.114957D+00

 Vector  530  Occ=0.000000D+00  E= 8.180006D+00

 Vector  531  Occ=0.000000D+00  E= 8.235343D+00

 Vector  532  Occ=0.000000D+00  E= 8.275356D+00

 Vector  533  Occ=0.000000D+00  E= 8.361794D+00

 Vector  534  Occ=0.000000D+00  E= 8.577442D+00

 Vector  535  Occ=0.000000D+00  E= 8.811015D+00

 Vector  536  Occ=0.000000D+00  E= 1.218762D+01

 Vector  537  Occ=0.000000D+00  E= 1.227338D+01

 Vector  538  Occ=0.000000D+00  E= 3.465148D+01

 Vector  539  Occ=0.000000D+00  E= 3.467913D+01

 Vector  540  Occ=0.000000D+00  E= 3.471758D+01

 Vector  541  Occ=0.000000D+00  E= 3.474054D+01

 Vector  542  Occ=0.000000D+00  E= 3.475680D+01

 Vector  543  Occ=0.000000D+00  E= 3.484329D+01

 Vector  544  Occ=0.000000D+00  E= 3.489432D+01

 Vector  545  Occ=0.000000D+00  E= 3.496566D+01

 Vector  546  Occ=0.000000D+00  E= 3.518131D+01

 Vector  547  Occ=0.000000D+00  E= 5.175397D+01

 Vector  548  Occ=0.000000D+00  E= 5.185335D+01

     Multipole analysis of the density
     ---------------------------------

     L   x y z        total         alpha         beta         nuclear
     -   - - -        -----         -----         ----         -------
     0   0 0 0     -0.000000    -39.000000    -39.000000     78.000000

     1   1 0 0      2.893656      1.446828      1.446828     -0.000000
     1   0 1 0     -0.000460     -0.000230     -0.000230      0.000000
     1   0 0 1     -0.096393     -0.048197     -0.048197      0.000000

     2   2 0 0    -62.248504   -874.553557   -874.553557   1686.858609
     2   1 1 0      0.003355      0.001717      0.001717     -0.000078
     2   1 0 1     -1.212857     -0.606399     -0.606399     -0.000059
     2   0 2 0    -42.827630   -177.382106   -177.382106    311.936582
     2   0 1 1      0.000219      0.000104      0.000104      0.000011

  Root   1 singlet a              0.171655549 a.u.                4.6710 eV
     Dipole Oscillator Strength                    0.0247994325
  Root   2 singlet a              0.184766453 a.u.                5.0278 eV
     Dipole Oscillator Strength                    0.6237441601
  Root   3 singlet a              0.205298364 a.u.                5.5865 eV
     Dipole Oscillator Strength                    0.0659419742
  Root   4 singlet a              0.230406381 a.u.                6.2697 eV
     Dipole Oscillator Strength                    0.0605223964
  Root   5 singlet a              0.232598263 a.u.                6.3293 eV
     Dipole Oscillator Strength                    0.1007736503
  Root   6 singlet a              0.233681821 a.u.                6.3588 eV
     Dipole Oscillator Strength                    0.0001159075
  Root   7 singlet a              0.238158657 a.u.                6.4806 eV
     Dipole Oscillator Strength                    0.0004351068
  Root   8 singlet a              0.241808697 a.u.                6.5800 eV
     Dipole Oscillator Strength                    0.0013443338
  Root   1 triplet a              0.123893250 a.u.                3.3713 eV
  Root   2 triplet a              0.142258977 a.u.                3.8711 eV
  Root   3 triplet a              0.165625798 a.u.                4.5069 eV
  Root   4 triplet a              0.180617613 a.u.                4.9149 eV
  Root   5 triplet a              0.198028356 a.u.                5.3886 eV
  Root   6 triplet a              0.203430845 a.u.                5.5356 eV
  Root   7 triplet a              0.218499090 a.u.                5.9457 eV
  Root   8 triplet a              0.229418687 a.u.                6.2428 eV
 Total times  cpu:    13579.8s     wall:    16189.7s
