 Output coordinates in angstroms (scale by  1.889725989 to convert to a.u.)

  No.       Tag          Charge          X              Y              Z
 ---- ---------------- ---------- -------------- -------------- --------------
    1 C                    6.0000     0.00000000     0.00000000     2.07260207
    2 C                    6.0000     1.20688600     0.00000000     1.35765907
    3 C                    6.0000    -1.20688600     0.00000000     1.35765907
    4 C                    6.0000     0.00000000     0.00000000    -0.70589393
    5 C                    6.0000     1.20815600     0.00000000    -0.02417693
    6 C                    6.0000    -1.20815600     0.00000000    -0.02417693
    7 N                    7.0000     0.00000000     0.00000000    -2.16064893
    8 N                    7.0000     0.00000000     0.00000000     3.43695807
    9 O                    8.0000     1.08453900     0.00000000    -2.72876293
   10 O                    8.0000    -1.08453900     0.00000000    -2.72876293
   11 H                    1.0000     2.14210500     0.00000000     1.89416007
   12 H                    1.0000    -2.14210500     0.00000000     1.89416007
   13 H                    1.0000     2.12746500     0.00000000    -0.58107793
   14 H                    1.0000    -2.12746500     0.00000000    -0.58107793
   15 H                    1.0000    -0.85796700     0.00000000     3.94892207
   16 H                    1.0000     0.85796700     0.00000000     3.94892207

         Total DFT energy =     -491.886370093667

                       DFT Final Molecular Orbital Analysis
                       ------------------------------------

 Vector    1  Occ=2.000000D+00  E=-1.892678D+01

 Vector  398  Occ=0.000000D+00  E= 4.993594D+00

 Vector  399  Occ=0.000000D+00  E= 5.046670D+00

 Vector  400  Occ=0.000000D+00  E= 5.046897D+00

 Vector  401  Occ=0.000000D+00  E= 5.073276D+00

 Vector  402  Occ=0.000000D+00  E= 5.080792D+00

 Vector  403  Occ=0.000000D+00  E= 5.101147D+00

 Vector  404  Occ=0.000000D+00  E= 5.128966D+00

 Vector  405  Occ=0.000000D+00  E= 5.174635D+00

 Vector  406  Occ=0.000000D+00  E= 5.222410D+00

 Vector  407  Occ=0.000000D+00  E= 5.235955D+00

 Vector  408  Occ=0.000000D+00  E= 5.239176D+00

 Vector  409  Occ=0.000000D+00  E= 5.272791D+00

 Vector  410  Occ=0.000000D+00  E= 5.304822D+00

 Vector  411  Occ=0.000000D+00  E= 5.319231D+00

 Vector  412  Occ=0.000000D+00  E= 5.370250D+00

 Vector  413  Occ=0.000000D+00  E= 5.409692D+00

 Vector  414  Occ=0.000000D+00  E= 5.450255D+00

 Vector  415  Occ=0.000000D+00  E= 5.494894D+00

 Vector  416  Occ=0.000000D+00  E= 5.537137D+00

 Vector  417  Occ=0.000000D+00  E= 5.568890D+00

 Vector  418  Occ=0.000000D+00  E= 5.600855D+00

 Vector  419  Occ=0.000000D+00  E= 5.638876D+00

 Vector  420  Occ=0.000000D+00  E= 5.645820D+00

 Vector  421  Occ=0.000000D+00  E= 5.664589D+00

 Vector  422  Occ=0.000000D+00  E= 5.673086D+00

 Vector  423  Occ=0.000000D+00  E= 5.724794D+00

 Vector  424  Occ=0.000000D+00  E= 5.749350D+00

 Vector  425  Occ=0.000000D+00  E= 5.792685D+00

 Vector  426  Occ=0.000000D+00  E= 5.934872D+00

 Vector  427  Occ=0.000000D+00  E= 5.939451D+00

 Vector  428  Occ=0.000000D+00  E= 6.016201D+00

 Vector  429  Occ=0.000000D+00  E= 6.051121D+00

 Vector  430  Occ=0.000000D+00  E= 6.087138D+00

 Vector  431  Occ=0.000000D+00  E= 6.132297D+00

 Vector  432  Occ=0.000000D+00  E= 6.182289D+00

 Vector  433  Occ=0.000000D+00  E= 6.246073D+00

 Vector  434  Occ=0.000000D+00  E= 6.317416D+00

 Vector  435  Occ=0.000000D+00  E= 6.360540D+00

 Vector  436  Occ=0.000000D+00  E= 6.390274D+00

 Vector  437  Occ=0.000000D+00  E= 6.419203D+00

 Vector  438  Occ=0.000000D+00  E= 6.442239D+00

 Vector  439  Occ=0.000000D+00  E= 6.444354D+00

 Vector  440  Occ=0.000000D+00  E= 6.459074D+00

 Vector  441  Occ=0.000000D+00  E= 6.487098D+00

 Vector  442  Occ=0.000000D+00  E= 6.576208D+00

 Vector  443  Occ=0.000000D+00  E= 6.590038D+00

 Vector  444  Occ=0.000000D+00  E= 6.612335D+00

 Vector  445  Occ=0.000000D+00  E= 6.615532D+00

 Vector  446  Occ=0.000000D+00  E= 6.830369D+00

 Vector  447  Occ=0.000000D+00  E= 6.864193D+00

 Vector  448  Occ=0.000000D+00  E= 6.920636D+00

 Vector  449  Occ=0.000000D+00  E= 6.967046D+00

 Vector  450  Occ=0.000000D+00  E= 6.974586D+00

 Vector  451  Occ=0.000000D+00  E= 6.995727D+00

 Vector  452  Occ=0.000000D+00  E= 7.412715D+00

 Vector  453  Occ=0.000000D+00  E= 7.507560D+00

 Vector  454  Occ=0.000000D+00  E= 7.845415D+00

 Vector  455  Occ=0.000000D+00  E= 7.990887D+00

 Vector  456  Occ=0.000000D+00  E= 8.042487D+00

 Vector  457  Occ=0.000000D+00  E= 8.117820D+00

 Vector  458  Occ=0.000000D+00  E= 8.219772D+00

 Vector  459  Occ=0.000000D+00  E= 8.260166D+00

 Vector  460  Occ=0.000000D+00  E= 8.334670D+00

 Vector  461  Occ=0.000000D+00  E= 8.418382D+00

 Vector  462  Occ=0.000000D+00  E= 8.560475D+00

 Vector  463  Occ=0.000000D+00  E= 8.636532D+00

 Vector  464  Occ=0.000000D+00  E= 1.213274D+01

 Vector  465  Occ=0.000000D+00  E= 1.215127D+01

 Vector  466  Occ=0.000000D+00  E= 1.683184D+01

 Vector  467  Occ=0.000000D+00  E= 1.685896D+01

 Vector  468  Occ=0.000000D+00  E= 3.464430D+01

 Vector  469  Occ=0.000000D+00  E= 3.468559D+01

 Vector  470  Occ=0.000000D+00  E= 3.472720D+01

 Vector  471  Occ=0.000000D+00  E= 3.488350D+01

 Vector  472  Occ=0.000000D+00  E= 3.491643D+01

 Vector  473  Occ=0.000000D+00  E= 3.513699D+01

 Vector  474  Occ=0.000000D+00  E= 5.165001D+01

 Vector  475  Occ=0.000000D+00  E= 5.175014D+01

 Vector  476  Occ=0.000000D+00  E= 7.184808D+01

 Vector  477  Occ=0.000000D+00  E= 7.185843D+01

     Multipole analysis of the density
     ---------------------------------

     L   x y z        total         alpha         beta         nuclear
     -   - - -        -----         -----         ----         -------
     0   0 0 0     -0.000000    -36.000000    -36.000000     72.000000

     1   1 0 0      0.000144      0.000072      0.000072      0.000000
     1   0 1 0     -0.000000     -0.000000     -0.000000      0.000000
     1   0 0 1      2.797471      1.398735      1.398735     -0.000000

     2   2 0 0    -39.180495   -150.855128   -150.855128    262.529762
     2   1 1 0      0.000000      0.000000      0.000000      0.000000
     2   1 0 1     -0.000270     -0.000135     -0.000135      0.000000
     2   0 2 0    -44.509214    -22.254607    -22.254607      0.000000
     2   0 1 1     -0.000000     -0.000000     -0.000000      0.000000

  Root   1 singlet a              0.144495923 a.u.                3.9319 eV
     Dipole Oscillator Strength                    0.0000000000
  Root   2 singlet a              0.163943838 a.u.                4.4611 eV
     Dipole Oscillator Strength                    0.0003523090
  Root   3 singlet a              0.168613068 a.u.                4.5882 eV
     Dipole Oscillator Strength                    0.4820745641
  Root   4 singlet a              0.176823015 a.u.                4.8116 eV
     Dipole Oscillator Strength                    0.0077642177
  Root   5 singlet a              0.209050219 a.u.                5.6885 eV
     Dipole Oscillator Strength                    0.0015843316
  Root   6 singlet a              0.213746430 a.u.                5.8163 eV
     Dipole Oscillator Strength                    0.0995946397
  Root   7 singlet a              0.239520253 a.u.                6.5177 eV
     Dipole Oscillator Strength                    0.0000000000
  Root   8 singlet a              0.244349495 a.u.                6.6491 eV
     Dipole Oscillator Strength                    0.0092546045
  Root   1 triplet a              0.118436178 a.u.                3.2228 eV
  Root   2 triplet a              0.125434551 a.u.                3.4132 eV
  Root   3 triplet a              0.130078765 a.u.                3.5396 eV
  Root   4 triplet a              0.144958105 a.u.                3.9445 eV
  Root   5 triplet a              0.147633174 a.u.                4.0173 eV
  Root   6 triplet a              0.166642821 a.u.                4.5346 eV
  Root   7 triplet a              0.171123225 a.u.                4.6565 eV
  Root   8 triplet a              0.195924706 a.u.                5.3314 eV
 Total times  cpu:     6934.2s     wall:     8104.9s
