 Output coordinates in angstroms (scale by  1.889725989 to convert to a.u.)

  No.       Tag          Charge          X              Y              Z
 ---- ---------------- ---------- -------------- -------------- --------------
    1 C                    6.0000     0.00000000     0.00000000     1.30797384
    2 C                    6.0000     1.20804200     0.00000000     0.57986084
    3 C                    6.0000    -1.20804200     0.00000000     0.57986084
    4 C                    6.0000     0.00000000     0.00000000    -1.48661116
    5 C                    6.0000     1.20557900     0.00000000    -0.80181516
    6 C                    6.0000    -1.20557900     0.00000000    -0.80181516
    7 C                    6.0000     1.25152600     0.00000000     3.39320384
    8 C                    6.0000    -1.25152600     0.00000000     3.39320384
    9 N                    7.0000     0.00000000     0.00000000     2.67018884
   10 N                    7.0000     0.00000000     0.00000000    -2.93997316
   11 O                    8.0000     1.08458900     0.00000000    -3.50888616
   12 O                    8.0000    -1.08458900     0.00000000    -3.50888616
   13 H                    1.0000     2.15207500     0.00000000     1.09354284
   14 H                    1.0000    -2.15207500     0.00000000     1.09354284
   15 H                    1.0000     2.12679900     0.00000000    -1.35614216
   16 H                    1.0000    -2.12679900     0.00000000    -1.35614216
   17 H                    1.0000     1.04101800     0.00000000     4.45721084
   18 H                    1.0000    -1.04101800     0.00000000     4.45721084
   19 H                    1.0000     1.84946500     0.88435100     3.16456884
   20 H                    1.0000     1.84946500    -0.88435100     3.16456884
   21 H                    1.0000    -1.84946500    -0.88435100     3.16456884
   22 H                    1.0000    -1.84946500     0.88435100     3.16456884

         Total DFT energy =     -570.439284324491

                       DFT Final Molecular Orbital Analysis
                       ------------------------------------

 Vector    1  Occ=2.000000D+00  E=-1.891663D+01

 Vector  516  Occ=0.000000D+00  E= 5.242001D+00

 Vector  517  Occ=0.000000D+00  E= 5.258748D+00

 Vector  518  Occ=0.000000D+00  E= 5.274142D+00

 Vector  519  Occ=0.000000D+00  E= 5.319489D+00

 Vector  520  Occ=0.000000D+00  E= 5.324732D+00

 Vector  521  Occ=0.000000D+00  E= 5.368114D+00

 Vector  522  Occ=0.000000D+00  E= 5.369001D+00

 Vector  523  Occ=0.000000D+00  E= 5.411705D+00

 Vector  524  Occ=0.000000D+00  E= 5.467732D+00

 Vector  525  Occ=0.000000D+00  E= 5.497918D+00

 Vector  526  Occ=0.000000D+00  E= 5.511185D+00

 Vector  527  Occ=0.000000D+00  E= 5.546057D+00

 Vector  528  Occ=0.000000D+00  E= 5.593189D+00

 Vector  529  Occ=0.000000D+00  E= 5.630812D+00

 Vector  530  Occ=0.000000D+00  E= 5.643005D+00

 Vector  531  Occ=0.000000D+00  E= 5.662718D+00

 Vector  532  Occ=0.000000D+00  E= 5.674632D+00

 Vector  533  Occ=0.000000D+00  E= 5.769985D+00

 Vector  534  Occ=0.000000D+00  E= 5.774114D+00

 Vector  535  Occ=0.000000D+00  E= 5.818767D+00

 Vector  536  Occ=0.000000D+00  E= 5.862733D+00

 Vector  537  Occ=0.000000D+00  E= 5.867991D+00

 Vector  538  Occ=0.000000D+00  E= 5.943784D+00

 Vector  539  Occ=0.000000D+00  E= 5.982452D+00

 Vector  540  Occ=0.000000D+00  E= 6.026842D+00

 Vector  541  Occ=0.000000D+00  E= 6.051024D+00

 Vector  542  Occ=0.000000D+00  E= 6.082596D+00

 Vector  543  Occ=0.000000D+00  E= 6.089138D+00

 Vector  544  Occ=0.000000D+00  E= 6.189766D+00

 Vector  545  Occ=0.000000D+00  E= 6.213377D+00

 Vector  546  Occ=0.000000D+00  E= 6.235202D+00

 Vector  547  Occ=0.000000D+00  E= 6.333379D+00

 Vector  548  Occ=0.000000D+00  E= 6.344515D+00

 Vector  549  Occ=0.000000D+00  E= 6.365136D+00

 Vector  550  Occ=0.000000D+00  E= 6.389338D+00

 Vector  551  Occ=0.000000D+00  E= 6.439576D+00

 Vector  552  Occ=0.000000D+00  E= 6.447041D+00

 Vector  553  Occ=0.000000D+00  E= 6.460001D+00

 Vector  554  Occ=0.000000D+00  E= 6.487832D+00

 Vector  555  Occ=0.000000D+00  E= 6.527808D+00

 Vector  556  Occ=0.000000D+00  E= 6.573026D+00

 Vector  557  Occ=0.000000D+00  E= 6.575367D+00

 Vector  558  Occ=0.000000D+00  E= 6.615844D+00

 Vector  559  Occ=0.000000D+00  E= 6.828655D+00

 Vector  560  Occ=0.000000D+00  E= 6.848821D+00

 Vector  561  Occ=0.000000D+00  E= 6.890572D+00

 Vector  562  Occ=0.000000D+00  E= 6.964190D+00

 Vector  563  Occ=0.000000D+00  E= 6.971924D+00

 Vector  564  Occ=0.000000D+00  E= 6.996619D+00

 Vector  565  Occ=0.000000D+00  E= 7.126541D+00

 Vector  566  Occ=0.000000D+00  E= 7.416160D+00

 Vector  567  Occ=0.000000D+00  E= 7.505630D+00

 Vector  568  Occ=0.000000D+00  E= 7.844866D+00

 Vector  569  Occ=0.000000D+00  E= 8.001710D+00

 Vector  570  Occ=0.000000D+00  E= 8.052234D+00

 Vector  571  Occ=0.000000D+00  E= 8.073299D+00

 Vector  572  Occ=0.000000D+00  E= 8.137076D+00

 Vector  573  Occ=0.000000D+00  E= 8.158131D+00

 Vector  574  Occ=0.000000D+00  E= 8.249375D+00

 Vector  575  Occ=0.000000D+00  E= 8.292485D+00

 Vector  576  Occ=0.000000D+00  E= 8.345712D+00

 Vector  577  Occ=0.000000D+00  E= 8.439219D+00

 Vector  578  Occ=0.000000D+00  E= 8.563439D+00

 Vector  579  Occ=0.000000D+00  E= 8.653346D+00

 Vector  580  Occ=0.000000D+00  E= 1.213069D+01

 Vector  581  Occ=0.000000D+00  E= 1.226325D+01

 Vector  582  Occ=0.000000D+00  E= 1.683897D+01

 Vector  583  Occ=0.000000D+00  E= 1.685633D+01

 Vector  584  Occ=0.000000D+00  E= 3.465796D+01

 Vector  585  Occ=0.000000D+00  E= 3.468987D+01

 Vector  586  Occ=0.000000D+00  E= 3.471513D+01

 Vector  587  Occ=0.000000D+00  E= 3.475669D+01

 Vector  588  Occ=0.000000D+00  E= 3.477009D+01

 Vector  589  Occ=0.000000D+00  E= 3.492073D+01

 Vector  590  Occ=0.000000D+00  E= 3.493765D+01

 Vector  591  Occ=0.000000D+00  E= 3.516266D+01

 Vector  592  Occ=0.000000D+00  E= 5.164579D+01

 Vector  593  Occ=0.000000D+00  E= 5.185162D+01

 Vector  594  Occ=0.000000D+00  E= 7.185367D+01

 Vector  595  Occ=0.000000D+00  E= 7.185590D+01

     Multipole analysis of the density
     ---------------------------------

     L   x y z        total         alpha         beta         nuclear
     -   - - -        -----         -----         ----         -------
     0   0 0 0     -0.000000    -44.000000    -44.000000     88.000000

     1   1 0 0      0.000143      0.000072      0.000072      0.000000
     1   0 1 0      0.000010      0.000005      0.000005      0.000000
     1   0 0 1      3.086224      1.543112      1.543112     -0.000000

     2   2 0 0    -49.262848   -215.200372   -215.200372    381.137897
     2   1 1 0     -0.000019     -0.000010     -0.000010      0.000000
     2   1 0 1     -0.000180     -0.000090     -0.000090      0.000000
     2   0 2 0    -53.587437    -32.379411    -32.379411     11.171385
     2   0 1 1     -0.000113     -0.000057     -0.000057      0.000000

  Root   1 singlet a              0.143763283 a.u.                3.9120 eV
     Dipole Oscillator Strength                    0.0000000004
  Root   2 singlet a              0.159797552 a.u.                4.3483 eV
     Dipole Oscillator Strength                    0.5706770628
  Root   3 singlet a              0.163400780 a.u.                4.4464 eV
     Dipole Oscillator Strength                    0.0003605993
  Root   4 singlet a              0.171453101 a.u.                4.6655 eV
     Dipole Oscillator Strength                    0.0163428549
  Root   5 singlet a              0.198653418 a.u.                5.4056 eV
     Dipole Oscillator Strength                    0.0311154535
  Root   6 singlet a              0.206167314 a.u.                5.6101 eV
     Dipole Oscillator Strength                    0.0834431321
  Root   7 singlet a              0.229590855 a.u.                6.2475 eV
     Dipole Oscillator Strength                    0.0000000000
  Root   8 singlet a              0.234921615 a.u.                6.3925 eV
     Dipole Oscillator Strength                    0.0005578535
  Root   1 triplet a              0.113555801 a.u.                3.0900 eV
  Root   2 triplet a              0.124861772 a.u.                3.3977 eV
  Root   3 triplet a              0.130756170 a.u.                3.5581 eV
  Root   4 triplet a              0.142966112 a.u.                3.8903 eV
  Root   5 triplet a              0.144584633 a.u.                3.9343 eV
  Root   6 triplet a              0.166382604 a.u.                4.5275 eV
  Root   7 triplet a              0.169273829 a.u.                4.6062 eV
  Root   8 triplet a              0.189887761 a.u.                5.1671 eV
 Total times  cpu:    15485.4s     wall:    18064.2s
