 Output coordinates in angstroms (scale by  1.889725989 to convert to a.u.)

  No.       Tag          Charge          X              Y              Z
 ---- ---------------- ---------- -------------- -------------- --------------
    1 C                    6.0000    -0.70094500     0.00000000    -0.01086874
    2 C                    6.0000     0.70094500     0.00000000    -0.01086874
    3 C                    6.0000    -1.40489400     0.00000000     1.20920426
    4 C                    6.0000     1.40489400     0.00000000     1.20920426
    5 C                    6.0000    -0.70650700     0.00000000     2.39375726
    6 C                    6.0000     0.70650700     0.00000000     2.39375726
    7 C                    6.0000    -1.32191700     0.00000000    -1.28589974
    8 C                    6.0000     1.32191700     0.00000000    -1.28589974
    9 N                    7.0000    -0.68568300     0.00000000    -2.43081374
   10 N                    7.0000     0.68568300     0.00000000    -2.43081374
   11 H                    1.0000    -2.48400800     0.00000000     1.20155226
   12 H                    1.0000     2.48400800     0.00000000     1.20155226
   13 H                    1.0000    -1.23583300     0.00000000     3.33254026
   14 H                    1.0000     1.23583300     0.00000000     3.33254026
   15 H                    1.0000    -2.40174000     0.00000000    -1.35555474
   16 H                    1.0000     2.40174000     0.00000000    -1.35555474

         Total DFT energy =     -417.692097973304

                       DFT Final Molecular Orbital Analysis
                       ------------------------------------

 Vector    1  Occ=2.000000D+00  E=-1.416988D+01

 Vector  390  Occ=0.000000D+00  E= 4.448495D+00

 Vector  391  Occ=0.000000D+00  E= 4.483932D+00

 Vector  392  Occ=0.000000D+00  E= 4.495690D+00

 Vector  393  Occ=0.000000D+00  E= 4.556775D+00

 Vector  394  Occ=0.000000D+00  E= 4.557606D+00

 Vector  395  Occ=0.000000D+00  E= 4.566524D+00

 Vector  396  Occ=0.000000D+00  E= 4.584688D+00

 Vector  397  Occ=0.000000D+00  E= 4.646764D+00

 Vector  398  Occ=0.000000D+00  E= 4.647176D+00

 Vector  399  Occ=0.000000D+00  E= 4.682383D+00

 Vector  400  Occ=0.000000D+00  E= 4.713122D+00

 Vector  401  Occ=0.000000D+00  E= 4.714049D+00

 Vector  402  Occ=0.000000D+00  E= 4.717479D+00

 Vector  403  Occ=0.000000D+00  E= 4.736302D+00

 Vector  404  Occ=0.000000D+00  E= 4.794856D+00

 Vector  405  Occ=0.000000D+00  E= 4.797826D+00

 Vector  406  Occ=0.000000D+00  E= 4.814592D+00

 Vector  407  Occ=0.000000D+00  E= 4.841771D+00

 Vector  408  Occ=0.000000D+00  E= 4.894983D+00

 Vector  409  Occ=0.000000D+00  E= 4.912099D+00

 Vector  410  Occ=0.000000D+00  E= 4.932067D+00

 Vector  411  Occ=0.000000D+00  E= 4.937202D+00

 Vector  412  Occ=0.000000D+00  E= 4.941935D+00

 Vector  413  Occ=0.000000D+00  E= 4.959888D+00

 Vector  414  Occ=0.000000D+00  E= 5.001443D+00

 Vector  415  Occ=0.000000D+00  E= 5.002647D+00

 Vector  416  Occ=0.000000D+00  E= 5.045370D+00

 Vector  417  Occ=0.000000D+00  E= 5.058755D+00

 Vector  418  Occ=0.000000D+00  E= 5.113884D+00

 Vector  419  Occ=0.000000D+00  E= 5.147309D+00

 Vector  420  Occ=0.000000D+00  E= 5.160427D+00

 Vector  421  Occ=0.000000D+00  E= 5.212294D+00

 Vector  422  Occ=0.000000D+00  E= 5.216562D+00

 Vector  423  Occ=0.000000D+00  E= 5.235556D+00

 Vector  424  Occ=0.000000D+00  E= 5.265878D+00

 Vector  425  Occ=0.000000D+00  E= 5.318904D+00

 Vector  426  Occ=0.000000D+00  E= 5.343624D+00

 Vector  427  Occ=0.000000D+00  E= 5.367741D+00

 Vector  428  Occ=0.000000D+00  E= 5.483339D+00

 Vector  429  Occ=0.000000D+00  E= 5.516103D+00

 Vector  430  Occ=0.000000D+00  E= 5.529557D+00

 Vector  431  Occ=0.000000D+00  E= 5.544526D+00

 Vector  432  Occ=0.000000D+00  E= 5.554906D+00

 Vector  433  Occ=0.000000D+00  E= 5.648266D+00

 Vector  434  Occ=0.000000D+00  E= 5.671639D+00

 Vector  435  Occ=0.000000D+00  E= 5.691718D+00

 Vector  436  Occ=0.000000D+00  E= 5.692125D+00

 Vector  437  Occ=0.000000D+00  E= 5.768523D+00

 Vector  438  Occ=0.000000D+00  E= 5.805986D+00

 Vector  439  Occ=0.000000D+00  E= 5.896144D+00

 Vector  440  Occ=0.000000D+00  E= 6.010281D+00

 Vector  441  Occ=0.000000D+00  E= 6.137263D+00

 Vector  442  Occ=0.000000D+00  E= 6.207830D+00

 Vector  443  Occ=0.000000D+00  E= 6.253852D+00

 Vector  444  Occ=0.000000D+00  E= 6.332622D+00

 Vector  445  Occ=0.000000D+00  E= 6.516522D+00

 Vector  446  Occ=0.000000D+00  E= 6.686584D+00

 Vector  447  Occ=0.000000D+00  E= 6.697971D+00

 Vector  448  Occ=0.000000D+00  E= 6.929817D+00

 Vector  449  Occ=0.000000D+00  E= 7.173022D+00

 Vector  450  Occ=0.000000D+00  E= 7.961955D+00

 Vector  451  Occ=0.000000D+00  E= 8.050874D+00

 Vector  452  Occ=0.000000D+00  E= 8.080936D+00

 Vector  453  Occ=0.000000D+00  E= 8.169147D+00

 Vector  454  Occ=0.000000D+00  E= 8.198872D+00

 Vector  455  Occ=0.000000D+00  E= 8.287901D+00

 Vector  456  Occ=0.000000D+00  E= 8.305375D+00

 Vector  457  Occ=0.000000D+00  E= 8.616913D+00

 Vector  458  Occ=0.000000D+00  E= 1.214626D+01

 Vector  459  Occ=0.000000D+00  E= 1.220026D+01

 Vector  460  Occ=0.000000D+00  E= 3.461771D+01

 Vector  461  Occ=0.000000D+00  E= 3.468054D+01

 Vector  462  Occ=0.000000D+00  E= 3.469033D+01

 Vector  463  Occ=0.000000D+00  E= 3.477061D+01

 Vector  464  Occ=0.000000D+00  E= 3.478485D+01

 Vector  465  Occ=0.000000D+00  E= 3.491473D+01

 Vector  466  Occ=0.000000D+00  E= 3.492097D+01

 Vector  467  Occ=0.000000D+00  E= 3.520047D+01

 Vector  468  Occ=0.000000D+00  E= 5.174252D+01

 Vector  469  Occ=0.000000D+00  E= 5.175049D+01

     Multipole analysis of the density
     ---------------------------------

     L   x y z        total         alpha         beta         nuclear
     -   - - -        -----         -----         ----         -------
     0   0 0 0     -0.000000    -34.000000    -34.000000     68.000000

     1   1 0 0     -0.000163     -0.000081     -0.000081      0.000000
     1   0 1 0     -0.000000     -0.000000     -0.000000      0.000000
     1   0 0 1      2.068371      1.034185      1.034185     -0.000000

     2   2 0 0    -36.119944   -178.854530   -178.854530    321.589116
     2   1 1 0      0.000000      0.000000      0.000000      0.000000
     2   1 0 1      0.000164      0.000082      0.000082      0.000000
     2   0 2 0    -44.535998    -22.267999    -22.267999      0.000000
     2   0 1 1      0.000000      0.000000      0.000000      0.000000

  Root   1 singlet a              0.140147300 a.u.                3.8136 eV
     Dipole Oscillator Strength                    0.0000000000
  Root   2 singlet a              0.157862420 a.u.                4.2957 eV
     Dipole Oscillator Strength                    0.0053119726
  Root   3 singlet a              0.177083703 a.u.                4.8187 eV
     Dipole Oscillator Strength                    0.0058482821
  Root   4 singlet a              0.192066674 a.u.                5.2264 eV
     Dipole Oscillator Strength                    0.0716629949
  Root   5 singlet a              0.198117888 a.u.                5.3911 eV
     Dipole Oscillator Strength                    0.0039887305
  Root   6 singlet a              0.214691523 a.u.                5.8421 eV
     Dipole Oscillator Strength                    0.0000000000
  Root   7 singlet a              0.230603780 a.u.                6.2751 eV
     Dipole Oscillator Strength                    0.0000000000
  Root   8 singlet a              0.243418570 a.u.                6.6238 eV
     Dipole Oscillator Strength                    0.0454461570
  Root   1 triplet a              0.123158860 a.u.                3.3513 eV
  Root   2 triplet a              0.123311066 a.u.                3.3555 eV
  Root   3 triplet a              0.127117678 a.u.                3.4590 eV
  Root   4 triplet a              0.152659358 a.u.                4.1541 eV
  Root   5 triplet a              0.167293755 a.u.                4.5523 eV
  Root   6 triplet a              0.170380766 a.u.                4.6363 eV
  Root   7 triplet a              0.171320263 a.u.                4.6619 eV
  Root   8 triplet a              0.189833374 a.u.                5.1656 eV
 Total times  cpu:     6911.3s     wall:     8257.8s
