 Output coordinates in angstroms (scale by  1.889725989 to convert to a.u.)

  No.       Tag          Charge          X              Y              Z
 ---- ---------------- ---------- -------------- -------------- --------------
    1 C                    6.0000     0.00000000     0.00000000     0.40980205
    2 C                    6.0000     1.20097500     0.00000000     1.11890705
    3 C                    6.0000    -1.20097500     0.00000000     1.11890705
    4 C                    6.0000     0.00000000     0.00000000     3.21440505
    5 C                    6.0000     1.19693800     0.00000000     2.50767705
    6 C                    6.0000    -1.19693800     0.00000000     2.50767705
    7 C                    6.0000     1.11756600     0.00000000    -1.80815895
    8 C                    6.0000    -1.11756600     0.00000000    -1.80815895
    9 C                    6.0000     0.71152100     0.00000000    -3.11595595
   10 C                    6.0000    -0.71152100     0.00000000    -3.11595595
   11 N                    7.0000     0.00000000     0.00000000    -0.99838095
   12 H                    1.0000     2.14067900     0.00000000     0.59677405
   13 H                    1.0000    -2.14067900     0.00000000     0.59677405
   14 H                    1.0000     2.13744600     0.00000000     3.03422805
   15 H                    1.0000    -2.13744600     0.00000000     3.03422805
   16 H                    1.0000     0.00000000     0.00000000     4.29128905
   17 H                    1.0000     2.10609300     0.00000000    -1.39937495
   18 H                    1.0000    -2.10609300     0.00000000    -1.39937495
   19 H                    1.0000     1.35995100     0.00000000    -3.97037495
   20 H                    1.0000    -1.35995100     0.00000000    -3.97037495

         Total DFT energy =     -440.956056159768

                       DFT Final Molecular Orbital Analysis
                       ------------------------------------

 Vector    1  Occ=2.000000D+00  E=-1.419598D+01

 Vector  457  Occ=0.000000D+00  E= 4.436080D+00

 Vector  458  Occ=0.000000D+00  E= 4.453559D+00

 Vector  459  Occ=0.000000D+00  E= 4.489607D+00

 Vector  460  Occ=0.000000D+00  E= 4.498533D+00

 Vector  461  Occ=0.000000D+00  E= 4.503380D+00

 Vector  462  Occ=0.000000D+00  E= 4.550332D+00

 Vector  463  Occ=0.000000D+00  E= 4.577603D+00

 Vector  464  Occ=0.000000D+00  E= 4.592741D+00

 Vector  465  Occ=0.000000D+00  E= 4.627023D+00

 Vector  466  Occ=0.000000D+00  E= 4.627767D+00

 Vector  467  Occ=0.000000D+00  E= 4.663505D+00

 Vector  468  Occ=0.000000D+00  E= 4.674571D+00

 Vector  469  Occ=0.000000D+00  E= 4.676786D+00

 Vector  470  Occ=0.000000D+00  E= 4.685120D+00

 Vector  471  Occ=0.000000D+00  E= 4.720918D+00

 Vector  472  Occ=0.000000D+00  E= 4.756260D+00

 Vector  473  Occ=0.000000D+00  E= 4.778632D+00

 Vector  474  Occ=0.000000D+00  E= 4.843488D+00

 Vector  475  Occ=0.000000D+00  E= 4.851054D+00

 Vector  476  Occ=0.000000D+00  E= 4.898269D+00

 Vector  477  Occ=0.000000D+00  E= 4.948874D+00

 Vector  478  Occ=0.000000D+00  E= 4.957474D+00

 Vector  479  Occ=0.000000D+00  E= 5.000622D+00

 Vector  480  Occ=0.000000D+00  E= 5.019072D+00

 Vector  481  Occ=0.000000D+00  E= 5.034077D+00

 Vector  482  Occ=0.000000D+00  E= 5.046030D+00

 Vector  483  Occ=0.000000D+00  E= 5.087510D+00

 Vector  484  Occ=0.000000D+00  E= 5.093639D+00

 Vector  485  Occ=0.000000D+00  E= 5.104575D+00

 Vector  486  Occ=0.000000D+00  E= 5.168311D+00

 Vector  487  Occ=0.000000D+00  E= 5.230808D+00

 Vector  488  Occ=0.000000D+00  E= 5.247508D+00

 Vector  489  Occ=0.000000D+00  E= 5.281015D+00

 Vector  490  Occ=0.000000D+00  E= 5.331657D+00

 Vector  491  Occ=0.000000D+00  E= 5.336508D+00

 Vector  492  Occ=0.000000D+00  E= 5.370377D+00

 Vector  493  Occ=0.000000D+00  E= 5.397772D+00

 Vector  494  Occ=0.000000D+00  E= 5.404864D+00

 Vector  495  Occ=0.000000D+00  E= 5.450316D+00

 Vector  496  Occ=0.000000D+00  E= 5.507031D+00

 Vector  497  Occ=0.000000D+00  E= 5.554319D+00

 Vector  498  Occ=0.000000D+00  E= 5.617767D+00

 Vector  499  Occ=0.000000D+00  E= 5.638792D+00

 Vector  500  Occ=0.000000D+00  E= 5.720866D+00

 Vector  501  Occ=0.000000D+00  E= 5.750826D+00

 Vector  502  Occ=0.000000D+00  E= 5.780980D+00

 Vector  503  Occ=0.000000D+00  E= 5.794174D+00

 Vector  504  Occ=0.000000D+00  E= 5.836889D+00

 Vector  505  Occ=0.000000D+00  E= 5.953182D+00

 Vector  506  Occ=0.000000D+00  E= 5.995279D+00

 Vector  507  Occ=0.000000D+00  E= 6.030796D+00

 Vector  508  Occ=0.000000D+00  E= 6.159547D+00

 Vector  509  Occ=0.000000D+00  E= 6.171857D+00

 Vector  510  Occ=0.000000D+00  E= 6.226307D+00

 Vector  511  Occ=0.000000D+00  E= 6.439825D+00

 Vector  512  Occ=0.000000D+00  E= 6.540538D+00

 Vector  513  Occ=0.000000D+00  E= 6.545596D+00

 Vector  514  Occ=0.000000D+00  E= 7.088742D+00

 Vector  515  Occ=0.000000D+00  E= 7.963728D+00

 Vector  516  Occ=0.000000D+00  E= 7.996485D+00

 Vector  517  Occ=0.000000D+00  E= 8.048624D+00

 Vector  518  Occ=0.000000D+00  E= 8.111157D+00

 Vector  519  Occ=0.000000D+00  E= 8.170534D+00

 Vector  520  Occ=0.000000D+00  E= 8.264432D+00

 Vector  521  Occ=0.000000D+00  E= 8.282586D+00

 Vector  522  Occ=0.000000D+00  E= 8.328387D+00

 Vector  523  Occ=0.000000D+00  E= 8.360520D+00

 Vector  524  Occ=0.000000D+00  E= 8.563293D+00

 Vector  525  Occ=0.000000D+00  E= 1.225816D+01

 Vector  526  Occ=0.000000D+00  E= 3.462449D+01

 Vector  527  Occ=0.000000D+00  E= 3.464622D+01

 Vector  528  Occ=0.000000D+00  E= 3.468927D+01

 Vector  529  Occ=0.000000D+00  E= 3.472379D+01

 Vector  530  Occ=0.000000D+00  E= 3.481721D+01

 Vector  531  Occ=0.000000D+00  E= 3.487736D+01

 Vector  532  Occ=0.000000D+00  E= 3.489569D+01

 Vector  533  Occ=0.000000D+00  E= 3.492259D+01

 Vector  534  Occ=0.000000D+00  E= 3.498353D+01

 Vector  535  Occ=0.000000D+00  E= 3.513776D+01

 Vector  536  Occ=0.000000D+00  E= 5.184694D+01

     Multipole analysis of the density
     ---------------------------------

     L   x y z        total         alpha         beta         nuclear
     -   - - -        -----         -----         ----         -------
     0   0 0 0     -0.000000    -38.000000    -38.000000     76.000000

     1   1 0 0      0.000117      0.000059      0.000059      0.000000
     1   0 1 0     -0.000000     -0.000000     -0.000000      0.000000
     1   0 0 1      0.487196      0.243598      0.243598      0.000000

     2   2 0 0    -41.749513   -175.207518   -175.207518    308.665522
     2   1 1 0      0.000000      0.000000      0.000000      0.000000
     2   1 0 1     -0.000290     -0.000145     -0.000145      0.000000
     2   0 2 0    -52.465273    -26.232637    -26.232637      0.000000
     2   0 1 1      0.000000      0.000000      0.000000      0.000000

  Root   1 singlet a              0.186264347 a.u.                5.0685 eV
     Dipole Oscillator Strength                    0.0081199309
  Root   2 singlet a              0.192575611 a.u.                5.2403 eV
     Dipole Oscillator Strength                    0.4413251997
  Root   3 singlet a              0.203083940 a.u.                5.5262 eV
     Dipole Oscillator Strength                    0.0248644816
  Root   4 singlet a              0.224718294 a.u.                6.1149 eV
     Dipole Oscillator Strength                    0.0000000000
  Root   5 singlet a              0.226073343 a.u.                6.1518 eV
     Dipole Oscillator Strength                    0.2312717333
  Root   6 singlet a              0.228192192 a.u.                6.2094 eV
     Dipole Oscillator Strength                    0.0097443532
  Root   7 singlet a              0.244213341 a.u.                6.6454 eV
     Dipole Oscillator Strength                    0.0585650799
  Root   8 singlet a              0.246234727 a.u.                6.7004 eV
     Dipole Oscillator Strength                    0.1798153878
  Root   1 triplet a              0.138595068 a.u.                3.7714 eV
  Root   2 triplet a              0.142213186 a.u.                3.8698 eV
  Root   3 triplet a              0.158276854 a.u.                4.3069 eV
  Root   4 triplet a              0.167820148 a.u.                4.5666 eV
  Root   5 triplet a              0.186901110 a.u.                5.0858 eV
  Root   6 triplet a              0.190483265 a.u.                5.1833 eV
  Root   7 triplet a              0.207767747 a.u.                5.6537 eV
  Root   8 triplet a              0.221869236 a.u.                6.0374 eV
 Total times  cpu:    11670.2s     wall:    14001.4s
