 Output coordinates in angstroms (scale by  1.889725989 to convert to a.u.)

  No.       Tag          Charge          X              Y              Z
 ---- ---------------- ---------- -------------- -------------- --------------
    1 C                    6.0000    -0.70821700     0.00000000    -0.04310591
    2 C                    6.0000     0.70821700     0.00000000    -0.04310591
    3 C                    6.0000    -1.40400800     0.00000000     1.18657709
    4 C                    6.0000     1.40400800     0.00000000     1.18657709
    5 C                    6.0000    -0.70760500     0.00000000     2.36834109
    6 C                    6.0000     0.70760500     0.00000000     2.36834109
    7 C                    6.0000    -0.70876200     0.00000000    -2.30875091
    8 C                    6.0000     0.70876200     0.00000000    -2.30875091
    9 N                    7.0000    -1.42036400     0.00000000    -1.20515291
   10 N                    7.0000     1.42036400     0.00000000    -1.20515291
   11 H                    1.0000    -2.48139600     0.00000000     1.15787509
   12 H                    1.0000     2.48139600     0.00000000     1.15787509
   13 H                    1.0000    -1.23813100     0.00000000     3.30654109
   14 H                    1.0000     1.23813100     0.00000000     3.30654109
   15 H                    1.0000    -1.24552400     0.00000000    -3.24671391
   16 H                    1.0000     1.24552400     0.00000000    -3.24671391

         Total DFT energy =     -417.718879427002

                       DFT Final Molecular Orbital Analysis
                       ------------------------------------

 Vector    1  Occ=2.000000D+00  E=-1.415889D+01

 Vector  391  Occ=0.000000D+00  E= 4.484329D+00

 Vector  392  Occ=0.000000D+00  E= 4.494749D+00

 Vector  393  Occ=0.000000D+00  E= 4.523616D+00

 Vector  394  Occ=0.000000D+00  E= 4.543876D+00

 Vector  395  Occ=0.000000D+00  E= 4.552024D+00

 Vector  396  Occ=0.000000D+00  E= 4.575396D+00

 Vector  397  Occ=0.000000D+00  E= 4.612213D+00

 Vector  398  Occ=0.000000D+00  E= 4.622690D+00

 Vector  399  Occ=0.000000D+00  E= 4.651142D+00

 Vector  400  Occ=0.000000D+00  E= 4.713487D+00

 Vector  401  Occ=0.000000D+00  E= 4.744713D+00

 Vector  402  Occ=0.000000D+00  E= 4.762501D+00

 Vector  403  Occ=0.000000D+00  E= 4.766620D+00

 Vector  404  Occ=0.000000D+00  E= 4.768159D+00

 Vector  405  Occ=0.000000D+00  E= 4.802769D+00

 Vector  406  Occ=0.000000D+00  E= 4.872290D+00

 Vector  407  Occ=0.000000D+00  E= 4.884824D+00

 Vector  408  Occ=0.000000D+00  E= 4.884832D+00

 Vector  409  Occ=0.000000D+00  E= 4.904118D+00

 Vector  410  Occ=0.000000D+00  E= 4.909396D+00

 Vector  411  Occ=0.000000D+00  E= 4.914236D+00

 Vector  412  Occ=0.000000D+00  E= 4.973282D+00

 Vector  413  Occ=0.000000D+00  E= 4.998082D+00

 Vector  414  Occ=0.000000D+00  E= 5.021147D+00

 Vector  415  Occ=0.000000D+00  E= 5.075086D+00

 Vector  416  Occ=0.000000D+00  E= 5.097731D+00

 Vector  417  Occ=0.000000D+00  E= 5.128735D+00

 Vector  418  Occ=0.000000D+00  E= 5.151534D+00

 Vector  419  Occ=0.000000D+00  E= 5.158698D+00

 Vector  420  Occ=0.000000D+00  E= 5.236100D+00

 Vector  421  Occ=0.000000D+00  E= 5.237570D+00

 Vector  422  Occ=0.000000D+00  E= 5.246118D+00

 Vector  423  Occ=0.000000D+00  E= 5.283126D+00

 Vector  424  Occ=0.000000D+00  E= 5.290055D+00

 Vector  425  Occ=0.000000D+00  E= 5.303242D+00

 Vector  426  Occ=0.000000D+00  E= 5.348005D+00

 Vector  427  Occ=0.000000D+00  E= 5.364803D+00

 Vector  428  Occ=0.000000D+00  E= 5.435218D+00

 Vector  429  Occ=0.000000D+00  E= 5.441843D+00

 Vector  430  Occ=0.000000D+00  E= 5.462291D+00

 Vector  431  Occ=0.000000D+00  E= 5.520630D+00

 Vector  432  Occ=0.000000D+00  E= 5.528517D+00

 Vector  433  Occ=0.000000D+00  E= 5.617011D+00

 Vector  434  Occ=0.000000D+00  E= 5.667091D+00

 Vector  435  Occ=0.000000D+00  E= 5.720341D+00

 Vector  436  Occ=0.000000D+00  E= 5.729794D+00

 Vector  437  Occ=0.000000D+00  E= 5.813331D+00

 Vector  438  Occ=0.000000D+00  E= 5.934011D+00

 Vector  439  Occ=0.000000D+00  E= 5.956809D+00

 Vector  440  Occ=0.000000D+00  E= 6.002938D+00

 Vector  441  Occ=0.000000D+00  E= 6.071249D+00

 Vector  442  Occ=0.000000D+00  E= 6.170438D+00

 Vector  443  Occ=0.000000D+00  E= 6.179264D+00

 Vector  444  Occ=0.000000D+00  E= 6.400852D+00

 Vector  445  Occ=0.000000D+00  E= 6.403672D+00

 Vector  446  Occ=0.000000D+00  E= 6.631677D+00

 Vector  447  Occ=0.000000D+00  E= 6.697248D+00

 Vector  448  Occ=0.000000D+00  E= 6.698426D+00

 Vector  449  Occ=0.000000D+00  E= 6.820000D+00

 Vector  450  Occ=0.000000D+00  E= 7.633609D+00

 Vector  451  Occ=0.000000D+00  E= 7.978403D+00

 Vector  452  Occ=0.000000D+00  E= 8.060691D+00

 Vector  453  Occ=0.000000D+00  E= 8.090422D+00

 Vector  454  Occ=0.000000D+00  E= 8.157133D+00

 Vector  455  Occ=0.000000D+00  E= 8.288115D+00

 Vector  456  Occ=0.000000D+00  E= 8.307013D+00

 Vector  457  Occ=0.000000D+00  E= 8.341102D+00

 Vector  458  Occ=0.000000D+00  E= 8.626119D+00

 Vector  459  Occ=0.000000D+00  E= 1.217982D+01

 Vector  460  Occ=0.000000D+00  E= 1.224924D+01

 Vector  461  Occ=0.000000D+00  E= 3.463366D+01

 Vector  462  Occ=0.000000D+00  E= 3.468351D+01

 Vector  463  Occ=0.000000D+00  E= 3.469611D+01

 Vector  464  Occ=0.000000D+00  E= 3.472838D+01

 Vector  465  Occ=0.000000D+00  E= 3.489378D+01

 Vector  466  Occ=0.000000D+00  E= 3.489596D+01

 Vector  467  Occ=0.000000D+00  E= 3.492846D+01

 Vector  468  Occ=0.000000D+00  E= 3.516490D+01

 Vector  469  Occ=0.000000D+00  E= 5.177251D+01

 Vector  470  Occ=0.000000D+00  E= 5.182713D+01

     Multipole analysis of the density
     ---------------------------------

     L   x y z        total         alpha         beta         nuclear
     -   - - -        -----         -----         ----         -------
     0   0 0 0     -0.000000    -34.000000    -34.000000     68.000000

     1   1 0 0      0.000183      0.000092      0.000092      0.000000
     1   0 1 0     -0.000000     -0.000000     -0.000000      0.000000
     1   0 0 1      0.170092      0.085046      0.085046     -0.000000

     2   2 0 0    -44.720862   -180.268648   -180.268648    315.816435
     2   1 1 0      0.000000      0.000000      0.000000      0.000000
     2   1 0 1      0.000149      0.000074      0.000074      0.000000
     2   0 2 0    -44.492710    -22.246355    -22.246355      0.000000
     2   0 1 1     -0.000000     -0.000000     -0.000000      0.000000

  Root   1 singlet a              0.134579845 a.u.                3.6621 eV
     Dipole Oscillator Strength                    0.0039418512
  Root   2 singlet a              0.170625071 a.u.                4.6429 eV
     Dipole Oscillator Strength                    0.0877348131
  Root   3 singlet a              0.174832563 a.u.                4.7574 eV
     Dipole Oscillator Strength                    0.0415661699
  Root   4 singlet a              0.181066571 a.u.                4.9271 eV
     Dipole Oscillator Strength                    0.0000000000
  Root   5 singlet a              0.199824401 a.u.                5.4375 eV
     Dipole Oscillator Strength                    0.0000000000
  Root   6 singlet a              0.225464402 a.u.                6.1352 eV
     Dipole Oscillator Strength                    0.6397603047
  Root   7 singlet a              0.228452460 a.u.                6.2165 eV
     Dipole Oscillator Strength                    0.0052910427
  Root   8 singlet a              0.238709292 a.u.                6.4956 eV
     Dipole Oscillator Strength                    0.0243657062
  Root   1 triplet a              0.111105864 a.u.                3.0233 eV
  Root   2 triplet a              0.117507589 a.u.                3.1975 eV
  Root   3 triplet a              0.133994961 a.u.                3.6462 eV
  Root   4 triplet a              0.164229014 a.u.                4.4689 eV
  Root   5 triplet a              0.170120169 a.u.                4.6292 eV
  Root   6 triplet a              0.171183192 a.u.                4.6581 eV
  Root   7 triplet a              0.174188441 a.u.                4.7399 eV
  Root   8 triplet a              0.180527052 a.u.                4.9124 eV
 Total times  cpu:     6343.4s     wall:     7524.9s
