 Output coordinates in angstroms (scale by  1.889725989 to convert to a.u.)

  No.       Tag          Charge          X              Y              Z
 ---- ---------------- ---------- -------------- -------------- --------------
    1 C                    6.0000     0.00000000     0.00000000     0.90266891
    2 C                    6.0000     1.20242400     0.00000000     0.19192491
    3 C                    6.0000    -1.20242400     0.00000000     0.19192491
    4 C                    6.0000     0.00000000     0.00000000    -1.89239109
    5 C                    6.0000     1.20827200     0.00000000    -1.19489409
    6 C                    6.0000    -1.20827200     0.00000000    -1.19489409
    7 C                    6.0000     0.00000000     0.00000000    -3.32243109
    8 C                    6.0000     0.00000000    -1.26574800     2.99629691
    9 C                    6.0000     0.00000000     1.26574800     2.99629691
   10 N                    7.0000     0.00000000     0.00000000     2.30925091
   11 N                    7.0000     0.00000000     0.00000000    -4.48351809
   12 H                    1.0000     2.13140900     0.00000000     0.73886391
   13 H                    1.0000    -2.13140900     0.00000000     0.73886391
   14 H                    1.0000     2.13684000     0.00000000    -1.74104909
   15 H                    1.0000    -2.13684000     0.00000000    -1.74104909
   16 H                    1.0000     0.00000000    -1.08617900     4.06859991
   17 H                    1.0000     0.00000000     1.08617900     4.06859991
   18 H                    1.0000     0.88297400    -1.86756800     2.76000691
   19 H                    1.0000    -0.88297400    -1.86756800     2.76000691
   20 H                    1.0000    -0.88297400     1.86756800     2.76000691
   21 H                    1.0000     0.88297400     1.86756800     2.76000691

         Total DFT energy =     -458.171411642868

                       DFT Final Molecular Orbital Analysis
                       ------------------------------------

 Vector    1  Occ=2.000000D+00  E=-1.413546D+01

 Vector  468  Occ=0.000000D+00  E= 4.578255D+00

 Vector  469  Occ=0.000000D+00  E= 4.627494D+00

 Vector  470  Occ=0.000000D+00  E= 4.671589D+00

 Vector  471  Occ=0.000000D+00  E= 4.675687D+00

 Vector  472  Occ=0.000000D+00  E= 4.725060D+00

 Vector  473  Occ=0.000000D+00  E= 4.739898D+00

 Vector  474  Occ=0.000000D+00  E= 4.755644D+00

 Vector  475  Occ=0.000000D+00  E= 4.757945D+00

 Vector  476  Occ=0.000000D+00  E= 4.774239D+00

 Vector  477  Occ=0.000000D+00  E= 4.776178D+00

 Vector  478  Occ=0.000000D+00  E= 4.789860D+00

 Vector  479  Occ=0.000000D+00  E= 4.828610D+00

 Vector  480  Occ=0.000000D+00  E= 4.835987D+00

 Vector  481  Occ=0.000000D+00  E= 4.851309D+00

 Vector  482  Occ=0.000000D+00  E= 4.874338D+00

 Vector  483  Occ=0.000000D+00  E= 4.899286D+00

 Vector  484  Occ=0.000000D+00  E= 4.946888D+00

 Vector  485  Occ=0.000000D+00  E= 4.961175D+00

 Vector  486  Occ=0.000000D+00  E= 4.992172D+00

 Vector  487  Occ=0.000000D+00  E= 5.010263D+00

 Vector  488  Occ=0.000000D+00  E= 5.026215D+00

 Vector  489  Occ=0.000000D+00  E= 5.054193D+00

 Vector  490  Occ=0.000000D+00  E= 5.067480D+00

 Vector  491  Occ=0.000000D+00  E= 5.092493D+00

 Vector  492  Occ=0.000000D+00  E= 5.098816D+00

 Vector  493  Occ=0.000000D+00  E= 5.207005D+00

 Vector  494  Occ=0.000000D+00  E= 5.220331D+00

 Vector  495  Occ=0.000000D+00  E= 5.238760D+00

 Vector  496  Occ=0.000000D+00  E= 5.267143D+00

 Vector  497  Occ=0.000000D+00  E= 5.274067D+00

 Vector  498  Occ=0.000000D+00  E= 5.292405D+00

 Vector  499  Occ=0.000000D+00  E= 5.347878D+00

 Vector  500  Occ=0.000000D+00  E= 5.411922D+00

 Vector  501  Occ=0.000000D+00  E= 5.424161D+00

 Vector  502  Occ=0.000000D+00  E= 5.428206D+00

 Vector  503  Occ=0.000000D+00  E= 5.445151D+00

 Vector  504  Occ=0.000000D+00  E= 5.477169D+00

 Vector  505  Occ=0.000000D+00  E= 5.548915D+00

 Vector  506  Occ=0.000000D+00  E= 5.596850D+00

 Vector  507  Occ=0.000000D+00  E= 5.628213D+00

 Vector  508  Occ=0.000000D+00  E= 5.674319D+00

 Vector  509  Occ=0.000000D+00  E= 5.679011D+00

 Vector  510  Occ=0.000000D+00  E= 5.685108D+00

 Vector  511  Occ=0.000000D+00  E= 5.770190D+00

 Vector  512  Occ=0.000000D+00  E= 5.832886D+00

 Vector  513  Occ=0.000000D+00  E= 5.836043D+00

 Vector  514  Occ=0.000000D+00  E= 5.909792D+00

 Vector  515  Occ=0.000000D+00  E= 6.107455D+00

 Vector  516  Occ=0.000000D+00  E= 6.145032D+00

 Vector  517  Occ=0.000000D+00  E= 6.162348D+00

 Vector  518  Occ=0.000000D+00  E= 6.180011D+00

 Vector  519  Occ=0.000000D+00  E= 6.223771D+00

 Vector  520  Occ=0.000000D+00  E= 6.318768D+00

 Vector  521  Occ=0.000000D+00  E= 6.455763D+00

 Vector  522  Occ=0.000000D+00  E= 6.495881D+00

 Vector  523  Occ=0.000000D+00  E= 6.995474D+00

 Vector  524  Occ=0.000000D+00  E= 7.605855D+00

 Vector  525  Occ=0.000000D+00  E= 8.019379D+00

 Vector  526  Occ=0.000000D+00  E= 8.028305D+00

 Vector  527  Occ=0.000000D+00  E= 8.064662D+00

 Vector  528  Occ=0.000000D+00  E= 8.185738D+00

 Vector  529  Occ=0.000000D+00  E= 8.201665D+00

 Vector  530  Occ=0.000000D+00  E= 8.243026D+00

 Vector  531  Occ=0.000000D+00  E= 8.268815D+00

 Vector  532  Occ=0.000000D+00  E= 8.403071D+00

 Vector  533  Occ=0.000000D+00  E= 8.585187D+00

 Vector  534  Occ=0.000000D+00  E= 8.887557D+00

 Vector  535  Occ=0.000000D+00  E= 1.218431D+01

 Vector  536  Occ=0.000000D+00  E= 1.232870D+01

 Vector  537  Occ=0.000000D+00  E= 3.465967D+01

 Vector  538  Occ=0.000000D+00  E= 3.467178D+01

 Vector  539  Occ=0.000000D+00  E= 3.470751D+01

 Vector  540  Occ=0.000000D+00  E= 3.477146D+01

 Vector  541  Occ=0.000000D+00  E= 3.480044D+01

 Vector  542  Occ=0.000000D+00  E= 3.483682D+01

 Vector  543  Occ=0.000000D+00  E= 3.486484D+01

 Vector  544  Occ=0.000000D+00  E= 3.496323D+01

 Vector  545  Occ=0.000000D+00  E= 3.516654D+01

 Vector  546  Occ=0.000000D+00  E= 5.175327D+01

 Vector  547  Occ=0.000000D+00  E= 5.191454D+01

     Multipole analysis of the density
     ---------------------------------

     L   x y z        total         alpha         beta         nuclear
     -   - - -        -----         -----         ----         -------
     0   0 0 0     -0.000000    -39.000000    -39.000000     78.000000

     1   1 0 0     -0.000022     -0.000011     -0.000011      0.000000
     1   0 1 0     -0.000009     -0.000005     -0.000005      0.000000
     1   0 0 1      2.111684      1.055842      1.055842      0.000000

     2   2 0 0    -44.172979   -122.443195   -122.443195    200.713412
     2   1 1 0     -0.000059     -0.000030     -0.000030      0.000000
     2   1 0 1      0.000062      0.000031      0.000031      0.000000
     2   0 2 0    -49.535273    -88.218712    -88.218712    126.902150
     2   0 1 1      0.000038      0.000019      0.000019      0.000000

  Root   1 singlet a              0.136879948 a.u.                3.7247 eV
     Dipole Oscillator Strength                    0.0000000065
  Root   2 singlet a              0.163997357 a.u.                4.4626 eV
     Dipole Oscillator Strength                    0.0000396428
  Root   3 singlet a              0.188040696 a.u.                5.1168 eV
     Dipole Oscillator Strength                    0.0092510478
  Root   4 singlet a              0.191076506 a.u.                5.1995 eV
     Dipole Oscillator Strength                    0.0071180418
  Root   5 singlet a              0.217089498 a.u.                5.9073 eV
     Dipole Oscillator Strength                    0.3743060656
  Root   6 singlet a              0.224287168 a.u.                6.1032 eV
     Dipole Oscillator Strength                    0.0000000001
  Root   7 singlet a              0.230340290 a.u.                6.2679 eV
     Dipole Oscillator Strength                    0.0003191733
  Root   8 singlet a              0.234496538 a.u.                6.3810 eV
     Dipole Oscillator Strength                    0.0005153745
  Root   1 triplet a              0.135370171 a.u.                3.6836 eV
  Root   2 triplet a              0.138973495 a.u.                3.7817 eV
  Root   3 triplet a              0.160829468 a.u.                4.3764 eV
  Root   4 triplet a              0.165578900 a.u.                4.5056 eV
  Root   5 triplet a              0.170408383 a.u.                4.6370 eV
  Root   6 triplet a              0.180591290 a.u.                4.9141 eV
  Root   7 triplet a              0.185144932 a.u.                5.0381 eV
  Root   8 triplet a              0.220842021 a.u.                6.0094 eV
 Total times  cpu:    12325.7s     wall:    14502.7s
