 Output coordinates in angstroms (scale by  1.889725989 to convert to a.u.)

  No.       Tag          Charge          X              Y              Z
 ---- ---------------- ---------- -------------- -------------- --------------
    1 Al                  13.0000     0.00000000     0.00000000     0.00000000

         Total DFT energy =     -242.221192387015
         Total DFT energy =     -242.248232129682
         Total DFT energy =     -242.252501432093
         Total DFT energy =     -242.253480726605
         Total DFT energy =     -242.253550528191
         Total DFT energy =     -242.253553368635
         Total DFT energy =     -242.253553621776
         Total DFT energy =     -242.253553621776

                    DFT Final Alpha Molecular Orbital Analysis
                    ------------------------------------------

 Vector    1  Occ=1.000000D+00  E=-5.564371D+01

 Vector   39  Occ=0.000000D+00  E= 8.663354D-01

 Vector   40  Occ=0.000000D+00  E= 8.778949D-01

 Vector   41  Occ=0.000000D+00  E= 8.778949D-01

 Vector   42  Occ=0.000000D+00  E= 8.784038D-01

 Vector   43  Occ=0.000000D+00  E= 8.784038D-01

 Vector   44  Occ=0.000000D+00  E= 8.815780D-01

 Vector   45  Occ=0.000000D+00  E= 9.901764D-01

 Vector   46  Occ=0.000000D+00  E= 9.901764D-01

 Vector   47  Occ=0.000000D+00  E= 9.904988D-01

 Vector   48  Occ=0.000000D+00  E= 9.904988D-01

 Vector   49  Occ=0.000000D+00  E= 9.950107D-01

 Vector   50  Occ=0.000000D+00  E= 9.950107D-01

 Vector   51  Occ=0.000000D+00  E= 9.955433D-01

 Vector   52  Occ=0.000000D+00  E= 1.144817D+00

 Vector   53  Occ=0.000000D+00  E= 1.144817D+00

 Vector   54  Occ=0.000000D+00  E= 1.146237D+00

 Vector   55  Occ=0.000000D+00  E= 1.862114D+00

 Vector   56  Occ=0.000000D+00  E= 3.000475D+00

 Vector   57  Occ=0.000000D+00  E= 3.508331D+00

 Vector   58  Occ=0.000000D+00  E= 3.508331D+00

 Vector   59  Occ=0.000000D+00  E= 3.518915D+00

 Vector    1  Occ=1.000000D+00  E=-5.564207D+01

 Vector    2  Occ=1.000000D+00  E=-4.182319D+00

 Vector    3  Occ=1.000000D+00  E=-2.777399D+00

 Vector    4  Occ=1.000000D+00  E=-2.777399D+00

 Vector    5  Occ=1.000000D+00  E=-2.766622D+00

 Vector    6  Occ=1.000000D+00  E=-3.891209D-01

 Vector    7  Occ=0.000000D+00  E=-3.076630D-04

 Vector    8  Occ=0.000000D+00  E=-3.076363D-04

 Vector    9  Occ=0.000000D+00  E= 1.979703D-02

 Vector   10  Occ=0.000000D+00  E= 2.515179D-02

 Vector   11  Occ=0.000000D+00  E= 4.905911D-02

 Vector   12  Occ=0.000000D+00  E= 4.905931D-02

 Vector   13  Occ=0.000000D+00  E= 6.283243D-02

 Vector   14  Occ=0.000000D+00  E= 1.034065D-01

 Vector   15  Occ=0.000000D+00  E= 1.034065D-01

 Vector   16  Occ=0.000000D+00  E= 1.072134D-01

 Vector   17  Occ=0.000000D+00  E= 1.102532D-01

 Vector   18  Occ=0.000000D+00  E= 1.102532D-01

 Vector   19  Occ=0.000000D+00  E= 1.158398D-01

 Vector   20  Occ=0.000000D+00  E= 2.533460D-01

 Vector   21  Occ=0.000000D+00  E= 2.533461D-01

 Vector   22  Occ=0.000000D+00  E= 2.707742D-01

 Vector   23  Occ=0.000000D+00  E= 3.085617D-01

 Vector   24  Occ=0.000000D+00  E= 3.085617D-01

 Vector   25  Occ=0.000000D+00  E= 3.270732D-01

 Vector   26  Occ=0.000000D+00  E= 3.270732D-01

 Vector   27  Occ=0.000000D+00  E= 3.335116D-01

 Vector   28  Occ=0.000000D+00  E= 3.335116D-01

 Vector   29  Occ=0.000000D+00  E= 3.342257D-01

 Vector   30  Occ=0.000000D+00  E= 3.413091D-01

 Vector   31  Occ=0.000000D+00  E= 3.413091D-01

 Vector   32  Occ=0.000000D+00  E= 3.464114D-01

 Vector   33  Occ=0.000000D+00  E= 3.464114D-01

 Vector   34  Occ=0.000000D+00  E= 3.481210D-01

 Vector   35  Occ=0.000000D+00  E= 3.973638D-01

 Vector   36  Occ=0.000000D+00  E= 4.365365D-01

 Vector   37  Occ=0.000000D+00  E= 4.365365D-01

 Vector   38  Occ=0.000000D+00  E= 4.483317D-01

 Vector   39  Occ=0.000000D+00  E= 8.682181D-01

 Vector   40  Occ=0.000000D+00  E= 8.781927D-01

 Vector   41  Occ=0.000000D+00  E= 8.781927D-01

 Vector   42  Occ=0.000000D+00  E= 9.003790D-01

 Vector   43  Occ=0.000000D+00  E= 9.003790D-01

 Vector   44  Occ=0.000000D+00  E= 9.087394D-01

 Vector   45  Occ=0.000000D+00  E= 9.898976D-01

 Vector   46  Occ=0.000000D+00  E= 9.898976D-01

 Vector   47  Occ=0.000000D+00  E= 1.009695D+00

 Vector   48  Occ=0.000000D+00  E= 1.009695D+00

 Vector   49  Occ=0.000000D+00  E= 1.021937D+00

 Vector   50  Occ=0.000000D+00  E= 1.021937D+00

 Vector   51  Occ=0.000000D+00  E= 1.025818D+00

 Vector   52  Occ=0.000000D+00  E= 1.149504D+00

 Vector   53  Occ=0.000000D+00  E= 1.149504D+00

 Vector   54  Occ=0.000000D+00  E= 1.175622D+00

 Vector   55  Occ=0.000000D+00  E= 1.868922D+00

 Vector   56  Occ=0.000000D+00  E= 3.009986D+00

 Vector   57  Occ=0.000000D+00  E= 3.510552D+00

 Vector   58  Occ=0.000000D+00  E= 3.510552D+00

 Vector   59  Occ=0.000000D+00  E= 3.534750D+00

  Root   1         a              0.000085152 a.u.                0.0023 eV
     Dipole Oscillator Strength                    0.0000000000
  Root   2         a              0.000085161 a.u.                0.0023 eV
     Dipole Oscillator Strength                    0.0000000000
  Root   3         a              0.125654624 a.u.                3.4192 eV
     Dipole Oscillator Strength                    0.1494441029
  Root   4         a              0.160094594 a.u.                4.3564 eV
     Dipole Oscillator Strength                    0.0000000001
  Root   5         a              0.160407210 a.u.                4.3649 eV
     Dipole Oscillator Strength                    0.0000000000
 Total times  cpu:       28.5s     wall:       33.8s
