 Output coordinates in angstroms (scale by  1.889725989 to convert to a.u.)

  No.       Tag          Charge          X              Y              Z
 ---- ---------------- ---------- -------------- -------------- --------------
    1 As                  33.0000     0.00000000     0.00000000     0.00000000

         Total DFT energy =    -2235.535308886879
         Total DFT energy =    -2235.566548651367
         Total DFT energy =    -2235.567660782941
         Total DFT energy =    -2235.567898736223
         Total DFT energy =    -2235.567928917570
         Total DFT energy =    -2235.567930039281
         Total DFT energy =    -2235.567930056027
         Total DFT energy =    -2235.567930056027

                    DFT Final Alpha Molecular Orbital Analysis
                    ------------------------------------------

 Vector    1  Occ=1.000000D+00  E=-4.243938D+02

 Vector   59  Occ=0.000000D+00  E= 1.566574D+00

 Vector   60  Occ=0.000000D+00  E= 1.566574D+00

 Vector   61  Occ=0.000000D+00  E= 1.668913D+00

 Vector   62  Occ=0.000000D+00  E= 1.668913D+00

 Vector   63  Occ=0.000000D+00  E= 1.668913D+00

 Vector   64  Occ=0.000000D+00  E= 3.166235D+00

 Vector   65  Occ=0.000000D+00  E= 3.166235D+00

 Vector   66  Occ=0.000000D+00  E= 3.166235D+00

 Vector   67  Occ=0.000000D+00  E= 3.181246D+00

 Vector   68  Occ=0.000000D+00  E= 6.697401D+00

 Vector   69  Occ=0.000000D+00  E= 7.059463D+01

 Vector    1  Occ=1.000000D+00  E=-4.243900D+02

 Vector    2  Occ=1.000000D+00  E=-5.345191D+01

 Vector    3  Occ=1.000000D+00  E=-4.783280D+01

 Vector    4  Occ=1.000000D+00  E=-4.783280D+01

 Vector    5  Occ=1.000000D+00  E=-4.783280D+01

 Vector    6  Occ=1.000000D+00  E=-6.977333D+00

 Vector    7  Occ=1.000000D+00  E=-5.076776D+00

 Vector    8  Occ=1.000000D+00  E=-5.076776D+00

 Vector    9  Occ=1.000000D+00  E=-5.076776D+00

 Vector   10  Occ=1.000000D+00  E=-1.734032D+00

 Vector   11  Occ=1.000000D+00  E=-1.734032D+00

 Vector   12  Occ=1.000000D+00  E=-1.734032D+00

 Vector   13  Occ=1.000000D+00  E=-1.734032D+00

 Vector   14  Occ=1.000000D+00  E=-1.734032D+00

 Vector   15  Occ=1.000000D+00  E=-5.951964D-01

 Vector   16  Occ=0.000000D+00  E=-1.206854D-02

 Vector   17  Occ=0.000000D+00  E=-1.206854D-02

 Vector   18  Occ=0.000000D+00  E=-1.206854D-02

 Vector   19  Occ=0.000000D+00  E= 4.759600D-02

 Vector   20  Occ=0.000000D+00  E= 7.715644D-02

 Vector   21  Occ=0.000000D+00  E= 7.715644D-02

 Vector   22  Occ=0.000000D+00  E= 7.715644D-02

 Vector   23  Occ=0.000000D+00  E= 2.012603D-01

 Vector   24  Occ=0.000000D+00  E= 2.012603D-01

 Vector   25  Occ=0.000000D+00  E= 2.012603D-01

 Vector   26  Occ=0.000000D+00  E= 2.012603D-01

 Vector   27  Occ=0.000000D+00  E= 2.012603D-01

 Vector   28  Occ=0.000000D+00  E= 2.119050D-01

 Vector   29  Occ=0.000000D+00  E= 2.978759D-01

 Vector   30  Occ=0.000000D+00  E= 2.978759D-01

 Vector   31  Occ=0.000000D+00  E= 2.978759D-01

 Vector   32  Occ=0.000000D+00  E= 5.721415D-01

 Vector   33  Occ=0.000000D+00  E= 5.721415D-01

 Vector   34  Occ=0.000000D+00  E= 5.721415D-01

 Vector   35  Occ=0.000000D+00  E= 5.721415D-01

 Vector   36  Occ=0.000000D+00  E= 5.721415D-01

 Vector   37  Occ=0.000000D+00  E= 6.359647D-01

 Vector   38  Occ=0.000000D+00  E= 6.359647D-01

 Vector   39  Occ=0.000000D+00  E= 6.359647D-01

 Vector   40  Occ=0.000000D+00  E= 6.359647D-01

 Vector   41  Occ=0.000000D+00  E= 6.359647D-01

 Vector   42  Occ=0.000000D+00  E= 6.359647D-01

 Vector   43  Occ=0.000000D+00  E= 6.359647D-01

 Vector   44  Occ=0.000000D+00  E= 6.432305D-01

 Vector   45  Occ=0.000000D+00  E= 7.632894D-01

 Vector   46  Occ=0.000000D+00  E= 7.632894D-01

 Vector   47  Occ=0.000000D+00  E= 7.632894D-01

 Vector   48  Occ=0.000000D+00  E= 1.105557D+00

 Vector   49  Occ=0.000000D+00  E= 1.616737D+00

 Vector   50  Occ=0.000000D+00  E= 1.616737D+00

 Vector   51  Occ=0.000000D+00  E= 1.616737D+00

 Vector   52  Occ=0.000000D+00  E= 1.616737D+00

 Vector   53  Occ=0.000000D+00  E= 1.616737D+00

 Vector   54  Occ=0.000000D+00  E= 1.646674D+00

 Vector   55  Occ=0.000000D+00  E= 1.646674D+00

 Vector   56  Occ=0.000000D+00  E= 1.646674D+00

 Vector   57  Occ=0.000000D+00  E= 1.646674D+00

 Vector   58  Occ=0.000000D+00  E= 1.646674D+00

 Vector   59  Occ=0.000000D+00  E= 1.646674D+00

 Vector   60  Occ=0.000000D+00  E= 1.646674D+00

 Vector   61  Occ=0.000000D+00  E= 1.702161D+00

 Vector   62  Occ=0.000000D+00  E= 1.702161D+00

 Vector   63  Occ=0.000000D+00  E= 1.702161D+00

 Vector   64  Occ=0.000000D+00  E= 3.214437D+00

 Vector   65  Occ=0.000000D+00  E= 3.214437D+00

 Vector   66  Occ=0.000000D+00  E= 3.214437D+00

 Vector   67  Occ=0.000000D+00  E= 3.220960D+00

 Vector   68  Occ=0.000000D+00  E= 6.740255D+00

 Vector   69  Occ=0.000000D+00  E= 7.060018D+01

  Root   1         a              0.240703668 a.u.                6.5499 eV
     Dipole Oscillator Strength                    0.1178113522
  Root   2         a              0.240703668 a.u.                6.5499 eV
     Dipole Oscillator Strength                    0.1178113522
  Root   3         a              0.240703668 a.u.                6.5499 eV
     Dipole Oscillator Strength                    0.1178140567
  Root   4         a              0.281432868 a.u.                7.6582 eV
     Dipole Oscillator Strength                    0.0125194374
  Root   5         a              0.281432868 a.u.                7.6582 eV
     Dipole Oscillator Strength                    0.0125194374
 Total times  cpu:      136.2s     wall:      158.4s
