 Output coordinates in angstroms (scale by  1.889725989 to convert to a.u.)

  No.       Tag          Charge          X              Y              Z
 ---- ---------------- ---------- -------------- -------------- --------------
    1 B                    5.0000     0.00000000     0.00000000     0.00000000

         Total DFT energy =      -24.565165794649
         Total DFT energy =      -24.617403034545
         Total DFT energy =      -24.622992392619
         Total DFT energy =      -24.624189951145
         Total DFT energy =      -24.624269046853
         Total DFT energy =      -24.624271330681
         Total DFT energy =      -24.624271400428
         Total DFT energy =      -24.624271400428

                    DFT Final Alpha Molecular Orbital Analysis
                    ------------------------------------------

 Vector    1  Occ=1.000000D+00  E=-6.847641D+00

 Vector   31  Occ=0.000000D+00  E= 6.522582D-01

 Vector   32  Occ=0.000000D+00  E= 6.589461D-01

 Vector   33  Occ=0.000000D+00  E= 6.658729D-01

 Vector   34  Occ=0.000000D+00  E= 6.658729D-01

 Vector   35  Occ=0.000000D+00  E= 1.150477D+00

 Vector   36  Occ=0.000000D+00  E= 1.725168D+00

 Vector   37  Occ=0.000000D+00  E= 1.731552D+00

 Vector   38  Occ=0.000000D+00  E= 1.731552D+00

 Vector   39  Occ=0.000000D+00  E= 1.971787D+00

 Vector   40  Occ=0.000000D+00  E= 1.971787D+00

 Vector   41  Occ=0.000000D+00  E= 1.976286D+00

 Vector   42  Occ=0.000000D+00  E= 1.981801D+00

 Vector   43  Occ=0.000000D+00  E= 1.981801D+00

 Vector   44  Occ=0.000000D+00  E= 2.083745D+00

 Vector   45  Occ=0.000000D+00  E= 2.083745D+00

 Vector   46  Occ=0.000000D+00  E= 2.087001D+00

 Vector   47  Occ=0.000000D+00  E= 2.087001D+00

 Vector   48  Occ=0.000000D+00  E= 2.088114D+00

 Vector   49  Occ=0.000000D+00  E= 2.088114D+00

 Vector   50  Occ=0.000000D+00  E= 2.088750D+00

 Vector   51  Occ=0.000000D+00  E= 3.654998D+00

 Vector   52  Occ=0.000000D+00  E= 3.739512D+00

 Vector   53  Occ=0.000000D+00  E= 3.739512D+00

 Vector   54  Occ=0.000000D+00  E= 3.740241D+00

 Vector   55  Occ=0.000000D+00  E= 5.656847D+00

 Vector    1  Occ=1.000000D+00  E=-6.837971D+00

 Vector    2  Occ=1.000000D+00  E=-4.660946D-01

 Vector    3  Occ=0.000000D+00  E= 3.057201D-03

 Vector    4  Occ=0.000000D+00  E= 3.057204D-03

 Vector    5  Occ=0.000000D+00  E= 2.990567D-02

 Vector    6  Occ=0.000000D+00  E= 4.222048D-02

 Vector    7  Occ=0.000000D+00  E= 6.411329D-02

 Vector    8  Occ=0.000000D+00  E= 6.411329D-02

 Vector    9  Occ=0.000000D+00  E= 8.254854D-02

 Vector   10  Occ=0.000000D+00  E= 1.853743D-01

 Vector   11  Occ=0.000000D+00  E= 1.853743D-01

 Vector   12  Occ=0.000000D+00  E= 1.859945D-01

 Vector   13  Occ=0.000000D+00  E= 1.925982D-01

 Vector   14  Occ=0.000000D+00  E= 1.925982D-01

 Vector   15  Occ=0.000000D+00  E= 1.974265D-01

 Vector   16  Occ=0.000000D+00  E= 2.590869D-01

 Vector   17  Occ=0.000000D+00  E= 2.590869D-01

 Vector   18  Occ=0.000000D+00  E= 2.786773D-01

 Vector   19  Occ=0.000000D+00  E= 6.219750D-01

 Vector   20  Occ=0.000000D+00  E= 6.219750D-01

 Vector   21  Occ=0.000000D+00  E= 6.461883D-01

 Vector   22  Occ=0.000000D+00  E= 6.461883D-01

 Vector   23  Occ=0.000000D+00  E= 6.494482D-01

 Vector   24  Occ=0.000000D+00  E= 6.494483D-01

 Vector   25  Occ=0.000000D+00  E= 6.507803D-01

 Vector   26  Occ=0.000000D+00  E= 6.598655D-01

 Vector   27  Occ=0.000000D+00  E= 6.598655D-01

 Vector   28  Occ=0.000000D+00  E= 6.616570D-01

 Vector   29  Occ=0.000000D+00  E= 6.633311D-01

 Vector   30  Occ=0.000000D+00  E= 6.633313D-01

 Vector   31  Occ=0.000000D+00  E= 6.673280D-01

 Vector   32  Occ=0.000000D+00  E= 6.754862D-01

 Vector   33  Occ=0.000000D+00  E= 6.754863D-01

 Vector   34  Occ=0.000000D+00  E= 7.004951D-01

 Vector   35  Occ=0.000000D+00  E= 1.156339D+00

 Vector   36  Occ=0.000000D+00  E= 1.738552D+00

 Vector   37  Occ=0.000000D+00  E= 1.738552D+00

 Vector   38  Occ=0.000000D+00  E= 1.772015D+00

 Vector   39  Occ=0.000000D+00  E= 1.986539D+00

 Vector   40  Occ=0.000000D+00  E= 1.986539D+00

 Vector   41  Occ=0.000000D+00  E= 2.027512D+00

 Vector   42  Occ=0.000000D+00  E= 2.027512D+00

 Vector   43  Occ=0.000000D+00  E= 2.039015D+00

 Vector   44  Occ=0.000000D+00  E= 2.086868D+00

 Vector   45  Occ=0.000000D+00  E= 2.086868D+00

 Vector   46  Occ=0.000000D+00  E= 2.116732D+00

 Vector   47  Occ=0.000000D+00  E= 2.116732D+00

 Vector   48  Occ=0.000000D+00  E= 2.133408D+00

 Vector   49  Occ=0.000000D+00  E= 2.133408D+00

 Vector   50  Occ=0.000000D+00  E= 2.139455D+00

 Vector   51  Occ=0.000000D+00  E= 3.676706D+00

 Vector   52  Occ=0.000000D+00  E= 3.747623D+00

 Vector   53  Occ=0.000000D+00  E= 3.747623D+00

 Vector   54  Occ=0.000000D+00  E= 3.779651D+00

 Vector   55  Occ=0.000000D+00  E= 5.678742D+00

  Root   1         a              0.000119088 a.u.                0.0032 eV
     Dipole Oscillator Strength                    0.0000000000
  Root   2         a              0.000124532 a.u.                0.0034 eV
     Dipole Oscillator Strength                    0.0000000000
  Root   3         a              0.187580462 a.u.                5.1043 eV
     Dipole Oscillator Strength                    0.0988498014
  Root   4         a              0.223013118 a.u.                6.0685 eV
     Dipole Oscillator Strength                    0.0000000000
  Root   5         a              0.223013126 a.u.                6.0685 eV
     Dipole Oscillator Strength                    0.0000000000
 Total times  cpu:       18.7s     wall:       21.9s
