 Output coordinates in angstroms (scale by  1.889725989 to convert to a.u.)

  No.       Tag          Charge          X              Y              Z
 ---- ---------------- ---------- -------------- -------------- --------------
    1 Be                   4.0000     0.00000000     0.00000000     0.00000000

         Total DFT energy =      -14.635546412726
         Total DFT energy =      -14.637476563663
         Total DFT energy =      -14.637524231218
         Total DFT energy =      -14.637527470443
         Total DFT energy =      -14.637527821308
         Total DFT energy =      -14.637527821308

                       DFT Final Molecular Orbital Analysis
                       ------------------------------------

 Vector    1  Occ=2.000000D+00  E=-4.118363D+00

 Vector    2  Occ=2.000000D+00  E=-3.280654D-01

 Vector    3  Occ=0.000000D+00  E= 1.122346D-02

 Vector    4  Occ=0.000000D+00  E= 1.122346D-02

 Vector    5  Occ=0.000000D+00  E= 1.122346D-02

 Vector    6  Occ=0.000000D+00  E= 3.249355D-02

 Vector    7  Occ=0.000000D+00  E= 3.807999D-02

 Vector    8  Occ=0.000000D+00  E= 3.807999D-02

 Vector    9  Occ=0.000000D+00  E= 3.807999D-02

 Vector   10  Occ=0.000000D+00  E= 1.869172D-01

 Vector   11  Occ=0.000000D+00  E= 1.869172D-01

 Vector   12  Occ=0.000000D+00  E= 1.869172D-01

 Vector   13  Occ=0.000000D+00  E= 1.869172D-01

 Vector   14  Occ=0.000000D+00  E= 1.869172D-01

 Vector   15  Occ=0.000000D+00  E= 1.935208D-01

 Vector   16  Occ=0.000000D+00  E= 2.031715D-01

 Vector   17  Occ=0.000000D+00  E= 2.031715D-01

 Vector   18  Occ=0.000000D+00  E= 2.031715D-01

 Vector   19  Occ=0.000000D+00  E= 5.764046D-01

 Vector   20  Occ=0.000000D+00  E= 5.764046D-01

 Vector   21  Occ=0.000000D+00  E= 5.764046D-01

 Vector   22  Occ=0.000000D+00  E= 5.764046D-01

 Vector   23  Occ=0.000000D+00  E= 5.764046D-01

 Vector   24  Occ=0.000000D+00  E= 5.767158D-01

 Vector   25  Occ=0.000000D+00  E= 5.767158D-01

 Vector   26  Occ=0.000000D+00  E= 5.767158D-01

 Vector   27  Occ=0.000000D+00  E= 5.767158D-01

 Vector   28  Occ=0.000000D+00  E= 5.767158D-01

 Vector   29  Occ=0.000000D+00  E= 5.767158D-01

 Vector   30  Occ=0.000000D+00  E= 5.767159D-01

 Vector   31  Occ=0.000000D+00  E= 6.059181D-01

 Vector   32  Occ=0.000000D+00  E= 6.068641D-01

 Vector   33  Occ=0.000000D+00  E= 6.068641D-01

 Vector   34  Occ=0.000000D+00  E= 6.068641D-01

 Vector   35  Occ=0.000000D+00  E= 1.135779D+00

 Vector   36  Occ=0.000000D+00  E= 1.445276D+00

 Vector   37  Occ=0.000000D+00  E= 1.445276D+00

 Vector   38  Occ=0.000000D+00  E= 1.445276D+00

 Vector   39  Occ=0.000000D+00  E= 1.445276D+00

 Vector   40  Occ=0.000000D+00  E= 1.445276D+00

 Vector   41  Occ=0.000000D+00  E= 1.483912D+00

 Vector   42  Occ=0.000000D+00  E= 1.483912D+00

 Vector   43  Occ=0.000000D+00  E= 1.483912D+00

 Vector   44  Occ=0.000000D+00  E= 1.587855D+00

 Vector   45  Occ=0.000000D+00  E= 1.587855D+00

 Vector   46  Occ=0.000000D+00  E= 1.587855D+00

 Vector   47  Occ=0.000000D+00  E= 1.587855D+00

 Vector   48  Occ=0.000000D+00  E= 1.587855D+00

 Vector   49  Occ=0.000000D+00  E= 1.587855D+00

 Vector   50  Occ=0.000000D+00  E= 1.587855D+00

 Vector   51  Occ=0.000000D+00  E= 2.331772D+00

 Vector   52  Occ=0.000000D+00  E= 4.461445D+00

 Vector   53  Occ=0.000000D+00  E= 4.461445D+00

 Vector   54  Occ=0.000000D+00  E= 4.461445D+00

 Vector   55  Occ=0.000000D+00  E= 9.229409D+00

  Root   1 singlet a              0.182583143 a.u.                4.9683 eV
     Dipole Oscillator Strength                    0.4622826042
  Root   2 singlet a              0.182583143 a.u.                4.9683 eV
     Dipole Oscillator Strength                    0.4622824210
  Root   3 singlet a              0.182583143 a.u.                4.9683 eV
     Dipole Oscillator Strength                    0.4622824210
  Root   4 singlet a              0.242790128 a.u.                6.6067 eV
     Dipole Oscillator Strength                    0.0000000000
  Root   5 singlet a              0.265067138 a.u.                7.2128 eV
     Dipole Oscillator Strength                    0.0024391683
  Root   1 triplet a              0.057960537 a.u.                1.5772 eV
  Root   2 triplet a              0.057960537 a.u.                1.5772 eV
  Root   3 triplet a              0.057960537 a.u.                1.5772 eV
  Root   4 triplet a              0.225745506 a.u.                6.1429 eV
  Root   5 triplet a              0.259030836 a.u.                7.0486 eV
 Total times  cpu:       19.2s     wall:       22.6s
