 Output coordinates in angstroms (scale by  1.889725989 to convert to a.u.)

  No.       Tag          Charge          X              Y              Z
 ---- ---------------- ---------- -------------- -------------- --------------
    1 Br                  35.0000     0.00000000     0.00000000     0.00000000

         Total DFT energy =    -2573.817105230853
         Total DFT energy =    -2573.834200957639
         Total DFT energy =    -2573.834850836740
         Total DFT energy =    -2573.834980364399
         Total DFT energy =    -2573.834992319247
         Total DFT energy =    -2573.834993069917
         Total DFT energy =    -2573.834993069917

                    DFT Final Alpha Molecular Orbital Analysis
                    ------------------------------------------

 Vector    1  Occ=1.000000D+00  E=-4.813015D+02

 Vector   59  Occ=0.000000D+00  E= 2.110846D+00

 Vector   60  Occ=0.000000D+00  E= 2.110846D+00

 Vector   61  Occ=0.000000D+00  E= 2.352206D+00

 Vector   62  Occ=0.000000D+00  E= 2.381738D+00

 Vector   63  Occ=0.000000D+00  E= 2.381738D+00

 Vector   64  Occ=0.000000D+00  E= 4.399197D+00

 Vector   65  Occ=0.000000D+00  E= 4.467161D+00

 Vector   66  Occ=0.000000D+00  E= 4.505749D+00

 Vector   67  Occ=0.000000D+00  E= 4.505749D+00

 Vector   68  Occ=0.000000D+00  E= 9.328622D+00

 Vector   69  Occ=0.000000D+00  E= 7.784390D+01

 Vector    1  Occ=1.000000D+00  E=-4.812995D+02

 Vector    2  Occ=1.000000D+00  E=-6.208503D+01

 Vector    3  Occ=1.000000D+00  E=-5.600028D+01

 Vector    4  Occ=1.000000D+00  E=-5.599545D+01

 Vector    5  Occ=1.000000D+00  E=-5.599545D+01

 Vector    6  Occ=1.000000D+00  E=-8.673572D+00

 Vector    7  Occ=1.000000D+00  E=-6.552101D+00

 Vector    8  Occ=1.000000D+00  E=-6.535138D+00

 Vector    9  Occ=1.000000D+00  E=-6.535138D+00

 Vector   10  Occ=1.000000D+00  E=-2.741627D+00

 Vector   11  Occ=1.000000D+00  E=-2.738019D+00

 Vector   12  Occ=1.000000D+00  E=-2.738019D+00

 Vector   13  Occ=1.000000D+00  E=-2.726391D+00

 Vector   14  Occ=1.000000D+00  E=-2.726391D+00

 Vector   15  Occ=1.000000D+00  E=-8.880784D-01

 Vector   16  Occ=1.000000D+00  E=-4.284279D-01

 Vector   17  Occ=1.000000D+00  E=-4.284279D-01

 Vector   18  Occ=0.000000D+00  E=-1.186991D-01

 Vector   19  Occ=0.000000D+00  E= 6.321821D-02

 Vector   20  Occ=0.000000D+00  E= 8.708351D-02

 Vector   21  Occ=0.000000D+00  E= 8.733783D-02

 Vector   22  Occ=0.000000D+00  E= 8.733783D-02

 Vector   23  Occ=0.000000D+00  E= 2.511987D-01

 Vector   24  Occ=0.000000D+00  E= 2.511987D-01

 Vector   25  Occ=0.000000D+00  E= 2.553958D-01

 Vector   26  Occ=0.000000D+00  E= 2.553958D-01

 Vector   27  Occ=0.000000D+00  E= 2.583378D-01

 Vector   28  Occ=0.000000D+00  E= 2.979779D-01

 Vector   29  Occ=0.000000D+00  E= 3.714437D-01

 Vector   30  Occ=0.000000D+00  E= 3.714437D-01

 Vector   31  Occ=0.000000D+00  E= 3.717318D-01

 Vector   32  Occ=0.000000D+00  E= 6.918925D-01

 Vector   33  Occ=0.000000D+00  E= 6.918925D-01

 Vector   34  Occ=0.000000D+00  E= 6.970313D-01

 Vector   35  Occ=0.000000D+00  E= 6.970313D-01

 Vector   36  Occ=0.000000D+00  E= 7.050803D-01

 Vector   37  Occ=0.000000D+00  E= 8.804391D-01

 Vector   38  Occ=0.000000D+00  E= 8.804391D-01

 Vector   39  Occ=0.000000D+00  E= 8.814870D-01

 Vector   40  Occ=0.000000D+00  E= 8.814870D-01

 Vector   41  Occ=0.000000D+00  E= 8.823708D-01

 Vector   42  Occ=0.000000D+00  E= 8.823796D-01

 Vector   43  Occ=0.000000D+00  E= 8.823796D-01

 Vector   44  Occ=0.000000D+00  E= 9.482906D-01

 Vector   45  Occ=0.000000D+00  E= 1.032033D+00

 Vector   46  Occ=0.000000D+00  E= 1.034706D+00

 Vector   47  Occ=0.000000D+00  E= 1.034706D+00

 Vector   48  Occ=0.000000D+00  E= 1.636508D+00

 Vector   49  Occ=0.000000D+00  E= 2.058291D+00

 Vector   50  Occ=0.000000D+00  E= 2.058291D+00

 Vector   51  Occ=0.000000D+00  E= 2.060417D+00

 Vector   52  Occ=0.000000D+00  E= 2.061933D+00

 Vector   53  Occ=0.000000D+00  E= 2.061933D+00

 Vector   54  Occ=0.000000D+00  E= 2.109566D+00

 Vector   55  Occ=0.000000D+00  E= 2.109566D+00

 Vector   56  Occ=0.000000D+00  E= 2.111766D+00

 Vector   57  Occ=0.000000D+00  E= 2.111766D+00

 Vector   58  Occ=0.000000D+00  E= 2.113424D+00

 Vector   59  Occ=0.000000D+00  E= 2.113424D+00

 Vector   60  Occ=0.000000D+00  E= 2.115413D+00

 Vector   61  Occ=0.000000D+00  E= 2.381666D+00

 Vector   62  Occ=0.000000D+00  E= 2.387403D+00

 Vector   63  Occ=0.000000D+00  E= 2.387403D+00

 Vector   64  Occ=0.000000D+00  E= 4.414473D+00

 Vector   65  Occ=0.000000D+00  E= 4.505847D+00

 Vector   66  Occ=0.000000D+00  E= 4.513411D+00

 Vector   67  Occ=0.000000D+00  E= 4.513411D+00

 Vector   68  Occ=0.000000D+00  E= 9.345960D+00

 Vector   69  Occ=0.000000D+00  E= 7.784632D+01

  Root   1         a              0.000118728 a.u.                0.0032 eV
     Dipole Oscillator Strength                    0.0000000000
  Root   2         a              0.000118728 a.u.                0.0032 eV
     Dipole Oscillator Strength                    0.0000000000
  Root   3         a              0.304385726 a.u.                8.2828 eV
     Dipole Oscillator Strength                    0.0207288879
  Root   4         a              0.304385730 a.u.                8.2828 eV
     Dipole Oscillator Strength                    0.0207252208
  Root   5         a              0.318810227 a.u.                8.6753 eV
     Dipole Oscillator Strength                    0.1273572293
 Total times  cpu:      135.3s     wall:      155.1s
