 Output coordinates in angstroms (scale by  1.889725989 to convert to a.u.)

  No.       Tag          Charge          X              Y              Z
 ---- ---------------- ---------- -------------- -------------- --------------
    1 C                    6.0000     0.00000000     0.00000000     0.00000000

         Total DFT energy =      -37.758176967772
         Total DFT energy =      -37.812882361932
         Total DFT energy =      -37.816717352965
         Total DFT energy =      -37.817313352208
         Total DFT energy =      -37.817371399213
         Total DFT energy =      -37.817371996130
         Total DFT energy =      -37.817371996130

                    DFT Final Alpha Molecular Orbital Analysis
                    ------------------------------------------

 Vector    1  Occ=1.000000D+00  E=-1.024951D+01

 Vector   31  Occ=0.000000D+00  E= 1.041001D+00

 Vector   32  Occ=0.000000D+00  E= 1.041573D+00

 Vector   33  Occ=0.000000D+00  E= 1.041574D+00

 Vector   34  Occ=0.000000D+00  E= 1.047357D+00

 Vector   35  Occ=0.000000D+00  E= 1.819375D+00

 Vector   36  Occ=0.000000D+00  E= 2.774349D+00

 Vector   37  Occ=0.000000D+00  E= 2.774349D+00

 Vector   38  Occ=0.000000D+00  E= 2.783421D+00

 Vector   39  Occ=0.000000D+00  E= 3.142167D+00

 Vector   40  Occ=0.000000D+00  E= 3.142167D+00

 Vector   41  Occ=0.000000D+00  E= 3.145864D+00

 Vector   42  Occ=0.000000D+00  E= 3.145865D+00

 Vector   43  Occ=0.000000D+00  E= 3.159817D+00

 Vector   44  Occ=0.000000D+00  E= 3.234337D+00

 Vector   45  Occ=0.000000D+00  E= 3.234337D+00

 Vector   46  Occ=0.000000D+00  E= 3.236936D+00

 Vector   47  Occ=0.000000D+00  E= 3.236936D+00

 Vector   48  Occ=0.000000D+00  E= 3.239761D+00

 Vector   49  Occ=0.000000D+00  E= 3.239761D+00

 Vector   50  Occ=0.000000D+00  E= 3.241734D+00

 Vector   51  Occ=0.000000D+00  E= 5.689929D+00

 Vector   52  Occ=0.000000D+00  E= 6.987947D+00

 Vector   53  Occ=0.000000D+00  E= 6.987947D+00

 Vector   54  Occ=0.000000D+00  E= 6.988592D+00

 Vector   55  Occ=0.000000D+00  E= 8.160393D+00

 Vector    1  Occ=1.000000D+00  E=-1.022108D+01

 Vector    2  Occ=1.000000D+00  E=-6.010303D-01

 Vector    3  Occ=0.000000D+00  E=-2.142345D-02

 Vector    4  Occ=0.000000D+00  E= 2.358952D-02

 Vector    5  Occ=0.000000D+00  E= 2.358952D-02

 Vector    6  Occ=0.000000D+00  E= 6.888670D-02

 Vector    7  Occ=0.000000D+00  E= 9.855800D-02

 Vector    8  Occ=0.000000D+00  E= 1.147165D-01

 Vector    9  Occ=0.000000D+00  E= 1.147166D-01

 Vector   10  Occ=0.000000D+00  E= 2.999709D-01

 Vector   11  Occ=0.000000D+00  E= 3.068906D-01

 Vector   12  Occ=0.000000D+00  E= 3.068907D-01

 Vector   13  Occ=0.000000D+00  E= 3.117624D-01

 Vector   14  Occ=0.000000D+00  E= 3.163065D-01

 Vector   15  Occ=0.000000D+00  E= 3.163065D-01

 Vector   16  Occ=0.000000D+00  E= 4.063796D-01

 Vector   17  Occ=0.000000D+00  E= 4.294495D-01

 Vector   18  Occ=0.000000D+00  E= 4.294495D-01

 Vector   19  Occ=0.000000D+00  E= 9.963434D-01

 Vector   20  Occ=0.000000D+00  E= 1.007086D+00

 Vector   21  Occ=0.000000D+00  E= 1.007086D+00

 Vector   22  Occ=0.000000D+00  E= 1.038189D+00

 Vector   23  Occ=0.000000D+00  E= 1.038189D+00

 Vector   24  Occ=0.000000D+00  E= 1.048289D+00

 Vector   25  Occ=0.000000D+00  E= 1.051595D+00

 Vector   26  Occ=0.000000D+00  E= 1.058674D+00

 Vector   27  Occ=0.000000D+00  E= 1.058674D+00

 Vector   28  Occ=0.000000D+00  E= 1.068534D+00

 Vector   29  Occ=0.000000D+00  E= 1.068534D+00

 Vector   30  Occ=0.000000D+00  E= 1.073622D+00

 Vector   31  Occ=0.000000D+00  E= 1.082927D+00

 Vector   32  Occ=0.000000D+00  E= 1.082927D+00

 Vector   33  Occ=0.000000D+00  E= 1.103881D+00

 Vector   34  Occ=0.000000D+00  E= 1.103881D+00

 Vector   35  Occ=0.000000D+00  E= 1.838617D+00

 Vector   36  Occ=0.000000D+00  E= 2.807626D+00

 Vector   37  Occ=0.000000D+00  E= 2.854773D+00

 Vector   38  Occ=0.000000D+00  E= 2.854773D+00

 Vector   39  Occ=0.000000D+00  E= 3.213928D+00

 Vector   40  Occ=0.000000D+00  E= 3.232646D+00

 Vector   41  Occ=0.000000D+00  E= 3.232646D+00

 Vector   42  Occ=0.000000D+00  E= 3.281904D+00

 Vector   43  Occ=0.000000D+00  E= 3.281904D+00

 Vector   44  Occ=0.000000D+00  E= 3.288476D+00

 Vector   45  Occ=0.000000D+00  E= 3.296282D+00

 Vector   46  Occ=0.000000D+00  E= 3.296282D+00

 Vector   47  Occ=0.000000D+00  E= 3.317324D+00

 Vector   48  Occ=0.000000D+00  E= 3.317324D+00

 Vector   49  Occ=0.000000D+00  E= 3.352031D+00

 Vector   50  Occ=0.000000D+00  E= 3.352031D+00

 Vector   51  Occ=0.000000D+00  E= 5.744398D+00

 Vector   52  Occ=0.000000D+00  E= 7.013136D+00

 Vector   53  Occ=0.000000D+00  E= 7.053456D+00

 Vector   54  Occ=0.000000D+00  E= 7.053456D+00

 Vector   55  Occ=0.000000D+00  E= 8.229739D+00

  Root   1         a              0.000083648 a.u.                0.0023 eV
     Dipole Oscillator Strength                    0.0000000000
  Root   2         a              0.000104545 a.u.                0.0028 eV
     Dipole Oscillator Strength                    0.0000000000
  Root   3         a              0.268997180 a.u.                7.3198 eV
     Dipole Oscillator Strength                    0.0864840595
  Root   4         a              0.268997248 a.u.                7.3198 eV
     Dipole Oscillator Strength                    0.0864840691
  Root   5         a              0.310201444 a.u.                8.4410 eV
     Dipole Oscillator Strength                    0.0000000000
 Total times  cpu:       20.3s     wall:       24.0s
