 Output coordinates in angstroms (scale by  1.889725989 to convert to a.u.)

  No.       Tag          Charge          X              Y              Z
 ---- ---------------- ---------- -------------- -------------- --------------
    1 Cl                  17.0000     0.00000000     0.00000000     0.00000000

         Total DFT energy =     -459.998732638753
         Total DFT energy =     -460.011219318288
         Total DFT energy =     -460.011733060411
         Total DFT energy =     -460.011787228019
         Total DFT energy =     -460.011795622236
         Total DFT energy =     -460.011795841298
         Total DFT energy =     -460.011795841298

                    DFT Final Alpha Molecular Orbital Analysis
                    ------------------------------------------

 Vector    1  Occ=1.000000D+00  E=-1.009724D+02

 Vector   39  Occ=0.000000D+00  E= 2.225013D+00

 Vector   40  Occ=0.000000D+00  E= 2.235422D+00

 Vector   41  Occ=0.000000D+00  E= 2.235422D+00

 Vector   42  Occ=0.000000D+00  E= 2.271416D+00

 Vector   43  Occ=0.000000D+00  E= 2.271416D+00

 Vector   44  Occ=0.000000D+00  E= 2.759096D+00

 Vector   45  Occ=0.000000D+00  E= 2.765554D+00

 Vector   46  Occ=0.000000D+00  E= 2.765554D+00

 Vector   47  Occ=0.000000D+00  E= 2.785129D+00

 Vector   48  Occ=0.000000D+00  E= 2.785129D+00

 Vector   49  Occ=0.000000D+00  E= 2.818221D+00

 Vector   50  Occ=0.000000D+00  E= 2.818221D+00

 Vector   51  Occ=0.000000D+00  E= 2.888093D+00

 Vector   52  Occ=0.000000D+00  E= 2.924760D+00

 Vector   53  Occ=0.000000D+00  E= 2.924760D+00

 Vector   54  Occ=0.000000D+00  E= 3.388650D+00

 Vector   55  Occ=0.000000D+00  E= 5.492516D+00

 Vector   56  Occ=0.000000D+00  E= 5.625524D+00

 Vector   57  Occ=0.000000D+00  E= 5.665381D+00

 Vector   58  Occ=0.000000D+00  E= 5.665381D+00

 Vector   59  Occ=0.000000D+00  E= 8.892806D+00

 Vector    1  Occ=1.000000D+00  E=-1.009670D+02

 Vector    2  Occ=1.000000D+00  E=-9.449928D+00

 Vector    3  Occ=1.000000D+00  E=-7.270178D+00

 Vector    4  Occ=1.000000D+00  E=-7.258789D+00

 Vector    5  Occ=1.000000D+00  E=-7.258789D+00

 Vector    6  Occ=1.000000D+00  E=-9.303239D-01

 Vector    7  Occ=1.000000D+00  E=-4.625859D-01

 Vector    8  Occ=1.000000D+00  E=-4.625859D-01

 Vector    9  Occ=0.000000D+00  E=-1.283734D-01

 Vector   10  Occ=0.000000D+00  E= 8.777670D-02

 Vector   11  Occ=0.000000D+00  E= 1.047255D-01

 Vector   12  Occ=0.000000D+00  E= 1.047255D-01

 Vector   13  Occ=0.000000D+00  E= 1.048854D-01

 Vector   14  Occ=0.000000D+00  E= 3.169779D-01

 Vector   15  Occ=0.000000D+00  E= 3.169779D-01

 Vector   16  Occ=0.000000D+00  E= 3.224517D-01

 Vector   17  Occ=0.000000D+00  E= 3.224517D-01

 Vector   18  Occ=0.000000D+00  E= 3.268550D-01

 Vector   19  Occ=0.000000D+00  E= 4.147511D-01

 Vector   20  Occ=0.000000D+00  E= 4.492555D-01

 Vector   21  Occ=0.000000D+00  E= 4.492555D-01

 Vector   22  Occ=0.000000D+00  E= 4.503352D-01

 Vector   23  Occ=0.000000D+00  E= 8.138231D-01

 Vector   24  Occ=0.000000D+00  E= 8.138231D-01

 Vector   25  Occ=0.000000D+00  E= 8.175744D-01

 Vector   26  Occ=0.000000D+00  E= 8.175744D-01

 Vector   27  Occ=0.000000D+00  E= 8.272873D-01

 Vector   28  Occ=0.000000D+00  E= 1.100402D+00

 Vector   29  Occ=0.000000D+00  E= 1.100402D+00

 Vector   30  Occ=0.000000D+00  E= 1.101670D+00

 Vector   31  Occ=0.000000D+00  E= 1.101670D+00

 Vector   32  Occ=0.000000D+00  E= 1.102435D+00

 Vector   33  Occ=0.000000D+00  E= 1.102435D+00

 Vector   34  Occ=0.000000D+00  E= 1.102923D+00

 Vector   35  Occ=0.000000D+00  E= 1.237509D+00

 Vector   36  Occ=0.000000D+00  E= 1.237509D+00

 Vector   37  Occ=0.000000D+00  E= 1.237531D+00

 Vector   38  Occ=0.000000D+00  E= 1.391134D+00

 Vector   39  Occ=0.000000D+00  E= 2.276047D+00

 Vector   40  Occ=0.000000D+00  E= 2.276047D+00

 Vector   41  Occ=0.000000D+00  E= 2.276642D+00

 Vector   42  Occ=0.000000D+00  E= 2.276642D+00

 Vector   43  Occ=0.000000D+00  E= 2.282169D+00

 Vector   44  Occ=0.000000D+00  E= 2.817563D+00

 Vector   45  Occ=0.000000D+00  E= 2.817563D+00

 Vector   46  Occ=0.000000D+00  E= 2.820554D+00

 Vector   47  Occ=0.000000D+00  E= 2.820554D+00

 Vector   48  Occ=0.000000D+00  E= 2.821897D+00

 Vector   49  Occ=0.000000D+00  E= 2.821897D+00

 Vector   50  Occ=0.000000D+00  E= 2.827794D+00

 Vector   51  Occ=0.000000D+00  E= 2.931739D+00

 Vector   52  Occ=0.000000D+00  E= 2.932695D+00

 Vector   53  Occ=0.000000D+00  E= 2.932695D+00

 Vector   54  Occ=0.000000D+00  E= 3.397914D+00

 Vector   55  Occ=0.000000D+00  E= 5.508644D+00

 Vector   56  Occ=0.000000D+00  E= 5.667564D+00

 Vector   57  Occ=0.000000D+00  E= 5.673106D+00

 Vector   58  Occ=0.000000D+00  E= 5.673106D+00

 Vector   59  Occ=0.000000D+00  E= 8.914761D+00

  Root   1         a              0.000148111 a.u.                0.0040 eV
     Dipole Oscillator Strength                    0.0000000000
  Root   2         a              0.000148402 a.u.                0.0040 eV
     Dipole Oscillator Strength                    0.0000000000
  Root   3         a              0.343502597 a.u.                9.3472 eV
     Dipole Oscillator Strength                    0.0200593883
  Root   4         a              0.343502598 a.u.                9.3472 eV
     Dipole Oscillator Strength                    0.0200589531
  Root   5         a              0.359245693 a.u.                9.7756 eV
     Dipole Oscillator Strength                    0.1181723328
 Total times  cpu:       50.6s     wall:       58.6s
