 Output coordinates in angstroms (scale by  1.889725989 to convert to a.u.)

  No.       Tag          Charge          X              Y              Z
 ---- ---------------- ---------- -------------- -------------- --------------
    1 Ga                  31.0000     0.00000000     0.00000000     0.00000000

         Total DFT energy =    -1924.545400165977
         Total DFT energy =    -1924.580093298639
         Total DFT energy =    -1924.585125625276
         Total DFT energy =    -1924.586906163098
         Total DFT energy =    -1924.587450713568
         Total DFT energy =    -1924.587469681681
         Total DFT energy =    -1924.587470131605
         Total DFT energy =    -1924.587470131605

                    DFT Final Alpha Molecular Orbital Analysis
                    ------------------------------------------

 Vector    1  Occ=1.000000D+00  E=-3.711828D+02

 Vector   59  Occ=0.000000D+00  E= 1.142350D+00

 Vector   60  Occ=0.000000D+00  E= 1.142739D+00

 Vector   61  Occ=0.000000D+00  E= 1.579912D+00

 Vector   62  Occ=0.000000D+00  E= 1.579912D+00

 Vector   63  Occ=0.000000D+00  E= 1.587543D+00

 Vector   64  Occ=0.000000D+00  E= 2.065682D+00

 Vector   65  Occ=0.000000D+00  E= 5.891083D+00

 Vector   66  Occ=0.000000D+00  E= 5.954088D+00

 Vector   67  Occ=0.000000D+00  E= 5.954088D+00

 Vector   68  Occ=0.000000D+00  E= 5.963928D+00

 Vector   69  Occ=0.000000D+00  E= 4.239795D+01

 Vector    1  Occ=1.000000D+00  E=-3.711821D+02

 Vector    2  Occ=1.000000D+00  E=-4.556685D+01

 Vector    3  Occ=1.000000D+00  E=-4.040984D+01

 Vector    4  Occ=1.000000D+00  E=-4.040984D+01

 Vector    5  Occ=1.000000D+00  E=-4.040644D+01

 Vector    6  Occ=1.000000D+00  E=-5.495420D+00

 Vector    7  Occ=1.000000D+00  E=-3.822271D+00

 Vector    8  Occ=1.000000D+00  E=-3.822271D+00

 Vector    9  Occ=1.000000D+00  E=-3.810386D+00

 Vector   10  Occ=1.000000D+00  E=-9.392560D-01

 Vector   11  Occ=1.000000D+00  E=-9.392560D-01

 Vector   12  Occ=1.000000D+00  E=-9.290050D-01

 Vector   13  Occ=1.000000D+00  E=-9.290050D-01

 Vector   14  Occ=1.000000D+00  E=-9.257118D-01

 Vector   15  Occ=1.000000D+00  E=-4.251787D-01

 Vector   16  Occ=0.000000D+00  E= 6.508358D-03

 Vector   17  Occ=0.000000D+00  E= 6.508359D-03

 Vector   18  Occ=0.000000D+00  E= 2.145526D-02

 Vector   19  Occ=0.000000D+00  E= 2.468400D-02

 Vector   20  Occ=0.000000D+00  E= 5.892280D-02

 Vector   21  Occ=0.000000D+00  E= 5.892280D-02

 Vector   22  Occ=0.000000D+00  E= 7.191741D-02

 Vector   23  Occ=0.000000D+00  E= 9.949573D-02

 Vector   24  Occ=0.000000D+00  E= 1.143934D-01

 Vector   25  Occ=0.000000D+00  E= 1.143934D-01

 Vector   26  Occ=0.000000D+00  E= 1.212763D-01

 Vector   27  Occ=0.000000D+00  E= 1.212763D-01

 Vector   28  Occ=0.000000D+00  E= 1.246996D-01

 Vector   29  Occ=0.000000D+00  E= 2.070197D-01

 Vector   30  Occ=0.000000D+00  E= 2.070197D-01

 Vector   31  Occ=0.000000D+00  E= 2.215405D-01

 Vector   32  Occ=0.000000D+00  E= 2.871162D-01

 Vector   33  Occ=0.000000D+00  E= 3.680110D-01

 Vector   34  Occ=0.000000D+00  E= 3.680110D-01

 Vector   35  Occ=0.000000D+00  E= 3.823067D-01

 Vector   36  Occ=0.000000D+00  E= 3.823067D-01

 Vector   37  Occ=0.000000D+00  E= 3.837684D-01

 Vector   38  Occ=0.000000D+00  E= 3.837684D-01

 Vector   39  Occ=0.000000D+00  E= 3.904649D-01

 Vector   40  Occ=0.000000D+00  E= 3.904649D-01

 Vector   41  Occ=0.000000D+00  E= 3.904775D-01

 Vector   42  Occ=0.000000D+00  E= 3.958243D-01

 Vector   43  Occ=0.000000D+00  E= 3.958243D-01

 Vector   44  Occ=0.000000D+00  E= 3.976972D-01

 Vector   45  Occ=0.000000D+00  E= 4.984218D-01

 Vector   46  Occ=0.000000D+00  E= 4.984218D-01

 Vector   47  Occ=0.000000D+00  E= 5.167576D-01

 Vector   48  Occ=0.000000D+00  E= 6.908267D-01

 Vector   49  Occ=0.000000D+00  E= 1.118917D+00

 Vector   50  Occ=0.000000D+00  E= 1.118917D+00

 Vector   51  Occ=0.000000D+00  E= 1.140345D+00

 Vector   52  Occ=0.000000D+00  E= 1.140345D+00

 Vector   53  Occ=0.000000D+00  E= 1.142023D+00

 Vector   54  Occ=0.000000D+00  E= 1.142023D+00

 Vector   55  Occ=0.000000D+00  E= 1.148286D+00

 Vector   56  Occ=0.000000D+00  E= 1.160915D+00

 Vector   57  Occ=0.000000D+00  E= 1.160915D+00

 Vector   58  Occ=0.000000D+00  E= 1.173345D+00

 Vector   59  Occ=0.000000D+00  E= 1.173345D+00

 Vector   60  Occ=0.000000D+00  E= 1.177332D+00

 Vector   61  Occ=0.000000D+00  E= 1.585785D+00

 Vector   62  Occ=0.000000D+00  E= 1.585785D+00

 Vector   63  Occ=0.000000D+00  E= 1.613432D+00

 Vector   64  Occ=0.000000D+00  E= 2.077685D+00

 Vector   65  Occ=0.000000D+00  E= 5.898205D+00

 Vector   66  Occ=0.000000D+00  E= 5.960467D+00

 Vector   67  Occ=0.000000D+00  E= 5.960467D+00

 Vector   68  Occ=0.000000D+00  E= 5.992462D+00

 Vector   69  Occ=0.000000D+00  E= 4.240064D+01

  Root   1         a              0.000188149 a.u.                0.0051 eV
     Dipole Oscillator Strength                    0.0000000000
  Root   2         a              0.000188151 a.u.                0.0051 eV
     Dipole Oscillator Strength                    0.0000000000
  Root   3         a              0.120184411 a.u.                3.2704 eV
     Dipole Oscillator Strength                    0.1474277796
  Root   4         a              0.160663033 a.u.                4.3719 eV
     Dipole Oscillator Strength                    0.0000000000
  Root   5         a              0.160782755 a.u.                4.3751 eV
     Dipole Oscillator Strength                    0.0000000000
 Total times  cpu:      127.4s     wall:      147.1s
