 Output coordinates in angstroms (scale by  1.889725989 to convert to a.u.)

  No.       Tag          Charge          X              Y              Z
 ---- ---------------- ---------- -------------- -------------- --------------
    1 Ge                  32.0000     0.00000000     0.00000000     0.00000000

         Total DFT energy =    -2076.647636629716
         Total DFT energy =    -2076.683896786535
         Total DFT energy =    -2076.686399070999
         Total DFT energy =    -2076.687049867272
         Total DFT energy =    -2076.687179881658
         Total DFT energy =    -2076.687183951627
         Total DFT energy =    -2076.687184017075
         Total DFT energy =    -2076.687184017075

                    DFT Final Alpha Molecular Orbital Analysis
                    ------------------------------------------

 Vector    1  Occ=1.000000D+00  E=-3.973234D+02

 Vector   59  Occ=0.000000D+00  E= 1.342974D+00

 Vector   60  Occ=0.000000D+00  E= 1.342974D+00

 Vector   61  Occ=0.000000D+00  E= 1.810213D+00

 Vector   62  Occ=0.000000D+00  E= 1.820805D+00

 Vector   63  Occ=0.000000D+00  E= 1.820805D+00

 Vector   64  Occ=0.000000D+00  E= 2.630982D+00

 Vector   65  Occ=0.000000D+00  E= 2.995495D+00

 Vector   66  Occ=0.000000D+00  E= 3.003663D+00

 Vector   67  Occ=0.000000D+00  E= 3.003663D+00

 Vector   68  Occ=0.000000D+00  E= 5.571085D+00

 Vector   69  Occ=0.000000D+00  E= 6.370844D+01

 Vector    1  Occ=1.000000D+00  E=-3.973215D+02

 Vector    2  Occ=1.000000D+00  E=-4.941470D+01

 Vector    3  Occ=1.000000D+00  E=-4.403022D+01

 Vector    4  Occ=1.000000D+00  E=-4.402553D+01

 Vector    5  Occ=1.000000D+00  E=-4.402553D+01

 Vector    6  Occ=1.000000D+00  E=-6.211932D+00

 Vector    7  Occ=1.000000D+00  E=-4.434762D+00

 Vector    8  Occ=1.000000D+00  E=-4.419477D+00

 Vector    9  Occ=1.000000D+00  E=-4.419477D+00

 Vector   10  Occ=1.000000D+00  E=-1.320183D+00

 Vector   11  Occ=1.000000D+00  E=-1.315939D+00

 Vector   12  Occ=1.000000D+00  E=-1.315939D+00

 Vector   13  Occ=1.000000D+00  E=-1.303480D+00

 Vector   14  Occ=1.000000D+00  E=-1.303480D+00

 Vector   15  Occ=1.000000D+00  E=-5.133536D-01

 Vector   16  Occ=0.000000D+00  E=-1.834947D-02

 Vector   17  Occ=0.000000D+00  E= 1.014371D-02

 Vector   18  Occ=0.000000D+00  E= 1.014371D-02

 Vector   19  Occ=0.000000D+00  E= 3.582693D-02

 Vector   20  Occ=0.000000D+00  E= 5.919677D-02

 Vector   21  Occ=0.000000D+00  E= 6.947412D-02

 Vector   22  Occ=0.000000D+00  E= 6.947412D-02

 Vector   23  Occ=0.000000D+00  E= 1.486046D-01

 Vector   24  Occ=0.000000D+00  E= 1.543599D-01

 Vector   25  Occ=0.000000D+00  E= 1.543599D-01

 Vector   26  Occ=0.000000D+00  E= 1.608951D-01

 Vector   27  Occ=0.000000D+00  E= 1.628434D-01

 Vector   28  Occ=0.000000D+00  E= 1.628434D-01

 Vector   29  Occ=0.000000D+00  E= 2.366334D-01

 Vector   30  Occ=0.000000D+00  E= 2.523346D-01

 Vector   31  Occ=0.000000D+00  E= 2.523346D-01

 Vector   32  Occ=0.000000D+00  E= 4.535890D-01

 Vector   33  Occ=0.000000D+00  E= 4.641425D-01

 Vector   34  Occ=0.000000D+00  E= 4.646123D-01

 Vector   35  Occ=0.000000D+00  E= 4.646123D-01

 Vector   36  Occ=0.000000D+00  E= 4.853303D-01

 Vector   37  Occ=0.000000D+00  E= 4.853303D-01

 Vector   38  Occ=0.000000D+00  E= 5.012407D-01

 Vector   39  Occ=0.000000D+00  E= 5.031713D-01

 Vector   40  Occ=0.000000D+00  E= 5.031713D-01

 Vector   41  Occ=0.000000D+00  E= 5.094089D-01

 Vector   42  Occ=0.000000D+00  E= 5.094089D-01

 Vector   43  Occ=0.000000D+00  E= 5.204872D-01

 Vector   44  Occ=0.000000D+00  E= 5.204872D-01

 Vector   45  Occ=0.000000D+00  E= 6.326107D-01

 Vector   46  Occ=0.000000D+00  E= 6.544723D-01

 Vector   47  Occ=0.000000D+00  E= 6.544723D-01

 Vector   48  Occ=0.000000D+00  E= 8.425908D-01

 Vector   49  Occ=0.000000D+00  E= 1.354854D+00

 Vector   50  Occ=0.000000D+00  E= 1.362288D+00

 Vector   51  Occ=0.000000D+00  E= 1.362288D+00

 Vector   52  Occ=0.000000D+00  E= 1.370429D+00

 Vector   53  Occ=0.000000D+00  E= 1.374404D+00

 Vector   54  Occ=0.000000D+00  E= 1.374404D+00

 Vector   55  Occ=0.000000D+00  E= 1.387213D+00

 Vector   56  Occ=0.000000D+00  E= 1.387213D+00

 Vector   57  Occ=0.000000D+00  E= 1.387481D+00

 Vector   58  Occ=0.000000D+00  E= 1.387481D+00

 Vector   59  Occ=0.000000D+00  E= 1.410237D+00

 Vector   60  Occ=0.000000D+00  E= 1.410237D+00

 Vector   61  Occ=0.000000D+00  E= 1.819433D+00

 Vector   62  Occ=0.000000D+00  E= 1.844270D+00

 Vector   63  Occ=0.000000D+00  E= 1.844270D+00

 Vector   64  Occ=0.000000D+00  E= 2.654762D+00

 Vector   65  Occ=0.000000D+00  E= 3.007564D+00

 Vector   66  Occ=0.000000D+00  E= 3.032881D+00

 Vector   67  Occ=0.000000D+00  E= 3.032881D+00

 Vector   68  Occ=0.000000D+00  E= 5.594778D+00

 Vector   69  Occ=0.000000D+00  E= 6.371338D+01

  Root   1         a              0.000037317 a.u.                0.0010 eV
     Dipole Oscillator Strength                    0.0000000000
  Root   2         a              0.000037319 a.u.                0.0010 eV
     Dipole Oscillator Strength                    0.0000000000
  Root   3         a              0.178889864 a.u.                4.8678 eV
     Dipole Oscillator Strength                    0.1287279889
  Root   4         a              0.178889864 a.u.                4.8678 eV
     Dipole Oscillator Strength                    0.1287279891
  Root   5         a              0.219221316 a.u.                5.9653 eV
     Dipole Oscillator Strength                    0.0000000000
 Total times  cpu:      134.2s     wall:      156.6s
