 Output coordinates in angstroms (scale by  1.889725989 to convert to a.u.)

  No.       Tag          Charge          X              Y              Z
 ---- ---------------- ---------- -------------- -------------- --------------
    1 Li                   3.0000     0.00000000     0.00000000     0.00000000

         Total DFT energy =       -7.464485633461
         Total DFT energy =       -7.468300262500
         Total DFT energy =       -7.469057066713
         Total DFT energy =       -7.469242317745
         Total DFT energy =       -7.469250549645
         Total DFT energy =       -7.469250612589
         Total DFT energy =       -7.469250614094
         Total DFT energy =       -7.469250614094

                    DFT Final Alpha Molecular Orbital Analysis
                    ------------------------------------------

 Vector    1  Occ=1.000000D+00  E=-2.115084D+00

 Vector   31  Occ=0.000000D+00  E= 3.136106D-01

 Vector   32  Occ=0.000000D+00  E= 3.616179D-01

 Vector   33  Occ=0.000000D+00  E= 3.616179D-01

 Vector   34  Occ=0.000000D+00  E= 3.616179D-01

 Vector   35  Occ=0.000000D+00  E= 6.697227D-01

 Vector   36  Occ=0.000000D+00  E= 7.803301D-01

 Vector   37  Occ=0.000000D+00  E= 7.803301D-01

 Vector   38  Occ=0.000000D+00  E= 7.803301D-01

 Vector   39  Occ=0.000000D+00  E= 7.803301D-01

 Vector   40  Occ=0.000000D+00  E= 7.803301D-01

 Vector   41  Occ=0.000000D+00  E= 8.624602D-01

 Vector   42  Occ=0.000000D+00  E= 8.624602D-01

 Vector   43  Occ=0.000000D+00  E= 8.624602D-01

 Vector   44  Occ=0.000000D+00  E= 9.035359D-01

 Vector   45  Occ=0.000000D+00  E= 9.035359D-01

 Vector   46  Occ=0.000000D+00  E= 9.035359D-01

 Vector   47  Occ=0.000000D+00  E= 9.035359D-01

 Vector   48  Occ=0.000000D+00  E= 9.035359D-01

 Vector   49  Occ=0.000000D+00  E= 9.035359D-01

 Vector   50  Occ=0.000000D+00  E= 9.035360D-01

 Vector   51  Occ=0.000000D+00  E= 1.483558D+00

 Vector   52  Occ=0.000000D+00  E= 1.795505D+00

 Vector   53  Occ=0.000000D+00  E= 1.795505D+00

 Vector   54  Occ=0.000000D+00  E= 1.795505D+00

 Vector   55  Occ=0.000000D+00  E= 5.986828D+00

 Vector    1  Occ=1.000000D+00  E=-2.108174D+00

 Vector    2  Occ=0.000000D+00  E= 1.091059D-02

 Vector    3  Occ=0.000000D+00  E= 1.961371D-02

 Vector    4  Occ=0.000000D+00  E= 1.961371D-02

 Vector    5  Occ=0.000000D+00  E= 1.961371D-02

 Vector    6  Occ=0.000000D+00  E= 4.369371D-02

 Vector    7  Occ=0.000000D+00  E= 7.296639D-02

 Vector    8  Occ=0.000000D+00  E= 7.296639D-02

 Vector    9  Occ=0.000000D+00  E= 7.296639D-02

 Vector   10  Occ=0.000000D+00  E= 1.221349D-01

 Vector   11  Occ=0.000000D+00  E= 1.221349D-01

 Vector   12  Occ=0.000000D+00  E= 1.221349D-01

 Vector   13  Occ=0.000000D+00  E= 1.221349D-01

 Vector   14  Occ=0.000000D+00  E= 1.221349D-01

 Vector   15  Occ=0.000000D+00  E= 1.244212D-01

 Vector   16  Occ=0.000000D+00  E= 1.584001D-01

 Vector   17  Occ=0.000000D+00  E= 1.584001D-01

 Vector   18  Occ=0.000000D+00  E= 1.584001D-01

 Vector   19  Occ=0.000000D+00  E= 3.404169D-01

 Vector   20  Occ=0.000000D+00  E= 3.595749D-01

 Vector   21  Occ=0.000000D+00  E= 3.595749D-01

 Vector   22  Occ=0.000000D+00  E= 3.595749D-01

 Vector   23  Occ=0.000000D+00  E= 3.595749D-01

 Vector   24  Occ=0.000000D+00  E= 3.595749D-01

 Vector   25  Occ=0.000000D+00  E= 3.719181D-01

 Vector   26  Occ=0.000000D+00  E= 3.719181D-01

 Vector   27  Occ=0.000000D+00  E= 3.719181D-01

 Vector   28  Occ=0.000000D+00  E= 3.719181D-01

 Vector   29  Occ=0.000000D+00  E= 3.719181D-01

 Vector   30  Occ=0.000000D+00  E= 3.719181D-01

 Vector   31  Occ=0.000000D+00  E= 3.719183D-01

 Vector   32  Occ=0.000000D+00  E= 3.858172D-01

 Vector   33  Occ=0.000000D+00  E= 3.858172D-01

 Vector   34  Occ=0.000000D+00  E= 3.858172D-01

 Vector   35  Occ=0.000000D+00  E= 7.098263D-01

 Vector   36  Occ=0.000000D+00  E= 7.902885D-01

 Vector   37  Occ=0.000000D+00  E= 7.902885D-01

 Vector   38  Occ=0.000000D+00  E= 7.902885D-01

 Vector   39  Occ=0.000000D+00  E= 7.902885D-01

 Vector   40  Occ=0.000000D+00  E= 7.902885D-01

 Vector   41  Occ=0.000000D+00  E= 8.900935D-01

 Vector   42  Occ=0.000000D+00  E= 8.900935D-01

 Vector   43  Occ=0.000000D+00  E= 8.900935D-01

 Vector   44  Occ=0.000000D+00  E= 9.301402D-01

 Vector   45  Occ=0.000000D+00  E= 9.301402D-01

 Vector   46  Occ=0.000000D+00  E= 9.301402D-01

 Vector   47  Occ=0.000000D+00  E= 9.301402D-01

 Vector   48  Occ=0.000000D+00  E= 9.301402D-01

 Vector   49  Occ=0.000000D+00  E= 9.301402D-01

 Vector   50  Occ=0.000000D+00  E= 9.301403D-01

 Vector   51  Occ=0.000000D+00  E= 1.497012D+00

 Vector   52  Occ=0.000000D+00  E= 1.800112D+00

 Vector   53  Occ=0.000000D+00  E= 1.800112D+00

 Vector   54  Occ=0.000000D+00  E= 1.800112D+00

 Vector   55  Occ=0.000000D+00  E= 5.997878D+00

  Root   1         a              0.068630028 a.u.                1.8675 eV
     Dipole Oscillator Strength                    0.2476920840
  Root   2         a              0.068630028 a.u.                1.8675 eV
     Dipole Oscillator Strength                    0.2476920840
  Root   3         a              0.068630029 a.u.                1.8675 eV
     Dipole Oscillator Strength                    0.2476920692
  Root   4         a              0.130521955 a.u.                3.5517 eV
     Dipole Oscillator Strength                    0.0000000000
  Root   5         a              0.147977370 a.u.                4.0267 eV
     Dipole Oscillator Strength                    0.0024867989
 Total times  cpu:       21.6s     wall:       26.4s
