 Output coordinates in angstroms (scale by  1.889725989 to convert to a.u.)

  No.       Tag          Charge          X              Y              Z
 ---- ---------------- ---------- -------------- -------------- --------------
    1 N                    7.0000     0.00000000     0.00000000     0.00000000

         Total DFT energy =      -54.509258441954
         Total DFT energy =      -54.554159625142
         Total DFT energy =      -54.559853971014
         Total DFT energy =      -54.560200425659
         Total DFT energy =      -54.560233513032
         Total DFT energy =      -54.560233706739
         Total DFT energy =      -54.560233706739

                    DFT Final Alpha Molecular Orbital Analysis
                    ------------------------------------------

 Vector    1  Occ=1.000000D+00  E=-1.432912D+01

 Vector   31  Occ=0.000000D+00  E= 1.405842D+00

 Vector   32  Occ=0.000000D+00  E= 1.405842D+00

 Vector   33  Occ=0.000000D+00  E= 1.405842D+00

 Vector   34  Occ=0.000000D+00  E= 1.405842D+00

 Vector   35  Occ=0.000000D+00  E= 2.568248D+00

 Vector   36  Occ=0.000000D+00  E= 3.771203D+00

 Vector   37  Occ=0.000000D+00  E= 3.771203D+00

 Vector   38  Occ=0.000000D+00  E= 3.771203D+00

 Vector   39  Occ=0.000000D+00  E= 4.535418D+00

 Vector   40  Occ=0.000000D+00  E= 4.535418D+00

 Vector   41  Occ=0.000000D+00  E= 4.535418D+00

 Vector   42  Occ=0.000000D+00  E= 4.535418D+00

 Vector   43  Occ=0.000000D+00  E= 4.535418D+00

 Vector   44  Occ=0.000000D+00  E= 4.535418D+00

 Vector   45  Occ=0.000000D+00  E= 4.535418D+00

 Vector   46  Occ=0.000000D+00  E= 4.639612D+00

 Vector   47  Occ=0.000000D+00  E= 4.639612D+00

 Vector   48  Occ=0.000000D+00  E= 4.639612D+00

 Vector   49  Occ=0.000000D+00  E= 4.639612D+00

 Vector   50  Occ=0.000000D+00  E= 4.639612D+00

 Vector   51  Occ=0.000000D+00  E= 8.086144D+00

 Vector   52  Occ=0.000000D+00  E= 9.307670D+00

 Vector   53  Occ=0.000000D+00  E= 9.307670D+00

 Vector   54  Occ=0.000000D+00  E= 9.307670D+00

 Vector   55  Occ=0.000000D+00  E= 1.188344D+01

 Vector    1  Occ=1.000000D+00  E=-1.427367D+01

 Vector    2  Occ=1.000000D+00  E=-7.382126D-01

 Vector    3  Occ=0.000000D+00  E= 4.719473D-03

 Vector    4  Occ=0.000000D+00  E= 4.719473D-03

 Vector    5  Occ=0.000000D+00  E= 4.719473D-03

 Vector    6  Occ=0.000000D+00  E= 9.681940D-02

 Vector    7  Occ=0.000000D+00  E= 1.440297D-01

 Vector    8  Occ=0.000000D+00  E= 1.440297D-01

 Vector    9  Occ=0.000000D+00  E= 1.440297D-01

 Vector   10  Occ=0.000000D+00  E= 4.432345D-01

 Vector   11  Occ=0.000000D+00  E= 4.622565D-01

 Vector   12  Occ=0.000000D+00  E= 4.622565D-01

 Vector   13  Occ=0.000000D+00  E= 4.622565D-01

 Vector   14  Occ=0.000000D+00  E= 4.622565D-01

 Vector   15  Occ=0.000000D+00  E= 4.622565D-01

 Vector   16  Occ=0.000000D+00  E= 5.645294D-01

 Vector   17  Occ=0.000000D+00  E= 5.645294D-01

 Vector   18  Occ=0.000000D+00  E= 5.645294D-01

 Vector   19  Occ=0.000000D+00  E= 1.458673D+00

 Vector   20  Occ=0.000000D+00  E= 1.458673D+00

 Vector   21  Occ=0.000000D+00  E= 1.458673D+00

 Vector   22  Occ=0.000000D+00  E= 1.458673D+00

 Vector   23  Occ=0.000000D+00  E= 1.458673D+00

 Vector   24  Occ=0.000000D+00  E= 1.458673D+00

 Vector   25  Occ=0.000000D+00  E= 1.458673D+00

 Vector   26  Occ=0.000000D+00  E= 1.462725D+00

 Vector   27  Occ=0.000000D+00  E= 1.462725D+00

 Vector   28  Occ=0.000000D+00  E= 1.462725D+00

 Vector   29  Occ=0.000000D+00  E= 1.483675D+00

 Vector   30  Occ=0.000000D+00  E= 1.499229D+00

 Vector   31  Occ=0.000000D+00  E= 1.499229D+00

 Vector   32  Occ=0.000000D+00  E= 1.499229D+00

 Vector   33  Occ=0.000000D+00  E= 1.499229D+00

 Vector   34  Occ=0.000000D+00  E= 1.499229D+00

 Vector   35  Occ=0.000000D+00  E= 2.613939D+00

 Vector   36  Occ=0.000000D+00  E= 3.887641D+00

 Vector   37  Occ=0.000000D+00  E= 3.887641D+00

 Vector   38  Occ=0.000000D+00  E= 3.887641D+00

 Vector   39  Occ=0.000000D+00  E= 4.680167D+00

 Vector   40  Occ=0.000000D+00  E= 4.680167D+00

 Vector   41  Occ=0.000000D+00  E= 4.680167D+00

 Vector   42  Occ=0.000000D+00  E= 4.680167D+00

 Vector   43  Occ=0.000000D+00  E= 4.680167D+00

 Vector   44  Occ=0.000000D+00  E= 4.680167D+00

 Vector   45  Occ=0.000000D+00  E= 4.680167D+00

 Vector   46  Occ=0.000000D+00  E= 4.829441D+00

 Vector   47  Occ=0.000000D+00  E= 4.829441D+00

 Vector   48  Occ=0.000000D+00  E= 4.829441D+00

 Vector   49  Occ=0.000000D+00  E= 4.829441D+00

 Vector   50  Occ=0.000000D+00  E= 4.829441D+00

 Vector   51  Occ=0.000000D+00  E= 8.186551D+00

 Vector   52  Occ=0.000000D+00  E= 9.404380D+00

 Vector   53  Occ=0.000000D+00  E= 9.404380D+00

 Vector   54  Occ=0.000000D+00  E= 9.404380D+00

 Vector   55  Occ=0.000000D+00  E= 1.201887D+01

  Root   1         a              0.358668924 a.u.                9.7599 eV
     Dipole Oscillator Strength                    0.0814683904
  Root   2         a              0.358668924 a.u.                9.7599 eV
     Dipole Oscillator Strength                    0.0814683904
  Root   3         a              0.358668924 a.u.                9.7599 eV
     Dipole Oscillator Strength                    0.0814687474
  Root   4         a              0.400198634 a.u.               10.8900 eV
     Dipole Oscillator Strength                    0.0363266147
  Root   5         a              0.400198634 a.u.               10.8900 eV
     Dipole Oscillator Strength                    0.0363266147
 Total times  cpu:       33.4s     wall:       38.9s
