 Output coordinates in angstroms (scale by  1.889725989 to convert to a.u.)

  No.       Tag          Charge          X              Y              Z
 ---- ---------------- ---------- -------------- -------------- --------------
    1 Na                  11.0000     0.00000000     0.00000000     0.00000000

         Total DFT energy =     -162.191335712949
         Total DFT energy =     -162.196419429527
         Total DFT energy =     -162.197280319626
         Total DFT energy =     -162.197519584648
         Total DFT energy =     -162.197619392966
         Total DFT energy =     -162.197619939049
         Total DFT energy =     -162.197619939049

                    DFT Final Alpha Molecular Orbital Analysis
                    ------------------------------------------

 Vector    1  Occ=1.000000D+00  E=-3.819634D+01

 Vector   39  Occ=0.000000D+00  E= 4.184406D-01

 Vector   40  Occ=0.000000D+00  E= 4.712916D-01

 Vector   41  Occ=0.000000D+00  E= 4.712916D-01

 Vector   42  Occ=0.000000D+00  E= 4.712916D-01

 Vector   43  Occ=0.000000D+00  E= 5.484704D-01

 Vector   44  Occ=0.000000D+00  E= 5.484704D-01

 Vector   45  Occ=0.000000D+00  E= 5.484704D-01

 Vector   46  Occ=0.000000D+00  E= 5.484704D-01

 Vector   47  Occ=0.000000D+00  E= 5.484704D-01

 Vector   48  Occ=0.000000D+00  E= 7.194594D-01

 Vector   49  Occ=0.000000D+00  E= 7.194594D-01

 Vector   50  Occ=0.000000D+00  E= 7.194594D-01

 Vector   51  Occ=0.000000D+00  E= 7.194594D-01

 Vector   52  Occ=0.000000D+00  E= 7.194594D-01

 Vector   53  Occ=0.000000D+00  E= 7.194594D-01

 Vector   54  Occ=0.000000D+00  E= 7.194594D-01

 Vector   55  Occ=0.000000D+00  E= 1.018994D+00

 Vector   56  Occ=0.000000D+00  E= 1.029161D+00

 Vector   57  Occ=0.000000D+00  E= 1.029161D+00

 Vector   58  Occ=0.000000D+00  E= 1.029161D+00

 Vector   59  Occ=0.000000D+00  E= 3.368911D+00

 Vector    1  Occ=1.000000D+00  E=-3.819529D+01

 Vector    2  Occ=1.000000D+00  E=-2.312270D+00

 Vector    3  Occ=1.000000D+00  E=-1.270749D+00

 Vector    4  Occ=1.000000D+00  E=-1.270749D+00

 Vector    5  Occ=1.000000D+00  E=-1.270749D+00

 Vector    6  Occ=0.000000D+00  E=-1.112929D-03

 Vector    7  Occ=0.000000D+00  E= 1.370138D-02

 Vector    8  Occ=0.000000D+00  E= 1.370138D-02

 Vector    9  Occ=0.000000D+00  E= 1.370138D-02

 Vector   10  Occ=0.000000D+00  E= 1.887987D-02

 Vector   11  Occ=0.000000D+00  E= 4.567110D-02

 Vector   12  Occ=0.000000D+00  E= 4.567110D-02

 Vector   13  Occ=0.000000D+00  E= 4.567110D-02

 Vector   14  Occ=0.000000D+00  E= 7.211029D-02

 Vector   15  Occ=0.000000D+00  E= 7.211029D-02

 Vector   16  Occ=0.000000D+00  E= 7.211029D-02

 Vector   17  Occ=0.000000D+00  E= 7.211029D-02

 Vector   18  Occ=0.000000D+00  E= 7.211029D-02

 Vector   19  Occ=0.000000D+00  E= 7.309363D-02

 Vector   20  Occ=0.000000D+00  E= 1.041454D-01

 Vector   21  Occ=0.000000D+00  E= 1.041454D-01

 Vector   22  Occ=0.000000D+00  E= 1.041454D-01

 Vector   23  Occ=0.000000D+00  E= 1.961065D-01

 Vector   24  Occ=0.000000D+00  E= 2.268136D-01

 Vector   25  Occ=0.000000D+00  E= 2.268136D-01

 Vector   26  Occ=0.000000D+00  E= 2.268136D-01

 Vector   27  Occ=0.000000D+00  E= 2.268136D-01

 Vector   28  Occ=0.000000D+00  E= 2.268136D-01

 Vector   29  Occ=0.000000D+00  E= 2.306067D-01

 Vector   30  Occ=0.000000D+00  E= 2.306067D-01

 Vector   31  Occ=0.000000D+00  E= 2.306067D-01

 Vector   32  Occ=0.000000D+00  E= 2.850127D-01

 Vector   33  Occ=0.000000D+00  E= 2.850127D-01

 Vector   34  Occ=0.000000D+00  E= 2.850127D-01

 Vector   35  Occ=0.000000D+00  E= 2.850127D-01

 Vector   36  Occ=0.000000D+00  E= 2.850127D-01

 Vector   37  Occ=0.000000D+00  E= 2.850127D-01

 Vector   38  Occ=0.000000D+00  E= 2.850128D-01

 Vector   39  Occ=0.000000D+00  E= 4.316250D-01

 Vector   40  Occ=0.000000D+00  E= 4.804194D-01

 Vector   41  Occ=0.000000D+00  E= 4.804194D-01

 Vector   42  Occ=0.000000D+00  E= 4.804194D-01

 Vector   43  Occ=0.000000D+00  E= 5.515387D-01

 Vector   44  Occ=0.000000D+00  E= 5.515387D-01

 Vector   45  Occ=0.000000D+00  E= 5.515387D-01

 Vector   46  Occ=0.000000D+00  E= 5.515387D-01

 Vector   47  Occ=0.000000D+00  E= 5.515387D-01

 Vector   48  Occ=0.000000D+00  E= 7.201261D-01

 Vector   49  Occ=0.000000D+00  E= 7.201261D-01

 Vector   50  Occ=0.000000D+00  E= 7.201261D-01

 Vector   51  Occ=0.000000D+00  E= 7.201261D-01

 Vector   52  Occ=0.000000D+00  E= 7.201261D-01

 Vector   53  Occ=0.000000D+00  E= 7.201261D-01

 Vector   54  Occ=0.000000D+00  E= 7.201262D-01

 Vector   55  Occ=0.000000D+00  E= 1.023744D+00

 Vector   56  Occ=0.000000D+00  E= 1.033451D+00

 Vector   57  Occ=0.000000D+00  E= 1.033451D+00

 Vector   58  Occ=0.000000D+00  E= 1.033451D+00

 Vector   59  Occ=0.000000D+00  E= 3.371735D+00

  Root   1         a              0.073300822 a.u.                1.9946 eV
     Dipole Oscillator Strength                    0.3269872918
  Root   2         a              0.073300822 a.u.                1.9946 eV
     Dipole Oscillator Strength                    0.3269879658
  Root   3         a              0.073300822 a.u.                1.9946 eV
     Dipole Oscillator Strength                    0.3269879658
  Root   4         a              0.120422372 a.u.                3.2769 eV
     Dipole Oscillator Strength                    0.0000000000
  Root   5         a              0.140931173 a.u.                3.8349 eV
     Dipole Oscillator Strength                    0.0020729280
 Total times  cpu:       27.9s     wall:       33.1s
