 Output coordinates in angstroms (scale by  1.889725989 to convert to a.u.)

  No.       Tag          Charge          X              Y              Z
 ---- ---------------- ---------- -------------- -------------- --------------
    1 P                   15.0000     0.00000000     0.00000000     0.00000000

         Total DFT energy =     -341.115521438410
         Total DFT energy =     -341.142599494480
         Total DFT energy =     -341.143614431708
         Total DFT energy =     -341.143706051936
         Total DFT energy =     -341.143723422829
         Total DFT energy =     -341.143724185027
         Total DFT energy =     -341.143724185027

                    DFT Final Alpha Molecular Orbital Analysis
                    ------------------------------------------

 Vector    1  Occ=1.000000D+00  E=-7.657453D+01

 Vector   39  Occ=0.000000D+00  E= 1.491056D+00

 Vector   40  Occ=0.000000D+00  E= 1.491056D+00

 Vector   41  Occ=0.000000D+00  E= 1.491056D+00

 Vector   42  Occ=0.000000D+00  E= 1.491056D+00

 Vector   43  Occ=0.000000D+00  E= 1.491056D+00

 Vector   44  Occ=0.000000D+00  E= 1.713005D+00

 Vector   45  Occ=0.000000D+00  E= 1.713005D+00

 Vector   46  Occ=0.000000D+00  E= 1.713005D+00

 Vector   47  Occ=0.000000D+00  E= 1.713005D+00

 Vector   48  Occ=0.000000D+00  E= 1.713005D+00

 Vector   49  Occ=0.000000D+00  E= 1.713005D+00

 Vector   50  Occ=0.000000D+00  E= 1.713005D+00

 Vector   51  Occ=0.000000D+00  E= 1.859199D+00

 Vector   52  Occ=0.000000D+00  E= 2.266879D+00

 Vector   53  Occ=0.000000D+00  E= 2.266879D+00

 Vector   54  Occ=0.000000D+00  E= 2.266879D+00

 Vector   55  Occ=0.000000D+00  E= 3.493340D+00

 Vector   56  Occ=0.000000D+00  E= 5.589698D+00

 Vector   57  Occ=0.000000D+00  E= 6.154736D+00

 Vector   58  Occ=0.000000D+00  E= 6.154736D+00

 Vector   59  Occ=0.000000D+00  E= 6.154736D+00

 Vector    1  Occ=1.000000D+00  E=-7.656386D+01

 Vector    2  Occ=1.000000D+00  E=-6.559978D+00

 Vector    3  Occ=1.000000D+00  E=-4.766609D+00

 Vector    4  Occ=1.000000D+00  E=-4.766609D+00

 Vector    5  Occ=1.000000D+00  E=-4.766609D+00

 Vector    6  Occ=1.000000D+00  E=-5.873538D-01

 Vector    7  Occ=0.000000D+00  E=-1.303009D-02

 Vector    8  Occ=0.000000D+00  E=-1.303009D-02

 Vector    9  Occ=0.000000D+00  E=-1.303009D-02

 Vector   10  Occ=0.000000D+00  E= 5.819543D-02

 Vector   11  Occ=0.000000D+00  E= 8.560135D-02

 Vector   12  Occ=0.000000D+00  E= 8.560135D-02

 Vector   13  Occ=0.000000D+00  E= 8.560135D-02

 Vector   14  Occ=0.000000D+00  E= 2.206788D-01

 Vector   15  Occ=0.000000D+00  E= 2.206788D-01

 Vector   16  Occ=0.000000D+00  E= 2.206788D-01

 Vector   17  Occ=0.000000D+00  E= 2.206788D-01

 Vector   18  Occ=0.000000D+00  E= 2.206788D-01

 Vector   19  Occ=0.000000D+00  E= 2.584414D-01

 Vector   20  Occ=0.000000D+00  E= 3.158981D-01

 Vector   21  Occ=0.000000D+00  E= 3.158981D-01

 Vector   22  Occ=0.000000D+00  E= 3.158981D-01

 Vector   23  Occ=0.000000D+00  E= 5.882421D-01

 Vector   24  Occ=0.000000D+00  E= 5.882421D-01

 Vector   25  Occ=0.000000D+00  E= 5.882421D-01

 Vector   26  Occ=0.000000D+00  E= 5.882421D-01

 Vector   27  Occ=0.000000D+00  E= 5.882421D-01

 Vector   28  Occ=0.000000D+00  E= 6.419594D-01

 Vector   29  Occ=0.000000D+00  E= 6.419594D-01

 Vector   30  Occ=0.000000D+00  E= 6.419594D-01

 Vector   31  Occ=0.000000D+00  E= 6.419594D-01

 Vector   32  Occ=0.000000D+00  E= 6.419594D-01

 Vector   33  Occ=0.000000D+00  E= 6.419594D-01

 Vector   34  Occ=0.000000D+00  E= 6.419594D-01

 Vector   35  Occ=0.000000D+00  E= 7.900601D-01

 Vector   36  Occ=0.000000D+00  E= 7.900601D-01

 Vector   37  Occ=0.000000D+00  E= 7.900601D-01

 Vector   38  Occ=0.000000D+00  E= 8.654608D-01

 Vector   39  Occ=0.000000D+00  E= 1.560534D+00

 Vector   40  Occ=0.000000D+00  E= 1.560534D+00

 Vector   41  Occ=0.000000D+00  E= 1.560534D+00

 Vector   42  Occ=0.000000D+00  E= 1.560534D+00

 Vector   43  Occ=0.000000D+00  E= 1.560534D+00

 Vector   44  Occ=0.000000D+00  E= 1.799122D+00

 Vector   45  Occ=0.000000D+00  E= 1.799122D+00

 Vector   46  Occ=0.000000D+00  E= 1.799122D+00

 Vector   47  Occ=0.000000D+00  E= 1.799122D+00

 Vector   48  Occ=0.000000D+00  E= 1.799122D+00

 Vector   49  Occ=0.000000D+00  E= 1.799122D+00

 Vector   50  Occ=0.000000D+00  E= 1.799122D+00

 Vector   51  Occ=0.000000D+00  E= 1.873724D+00

 Vector   52  Occ=0.000000D+00  E= 2.321397D+00

 Vector   53  Occ=0.000000D+00  E= 2.321397D+00

 Vector   54  Occ=0.000000D+00  E= 2.321397D+00

 Vector   55  Occ=0.000000D+00  E= 3.531169D+00

 Vector   56  Occ=0.000000D+00  E= 5.642629D+00

 Vector   57  Occ=0.000000D+00  E= 6.192478D+00

 Vector   58  Occ=0.000000D+00  E= 6.192478D+00

 Vector   59  Occ=0.000000D+00  E= 6.192478D+00

  Root   1         a              0.257713927 a.u.                7.0128 eV
     Dipole Oscillator Strength                    0.0816400004
  Root   2         a              0.257713927 a.u.                7.0128 eV
     Dipole Oscillator Strength                    0.0816400004
  Root   3         a              0.257713928 a.u.                7.0128 eV
     Dipole Oscillator Strength                    0.0816433228
  Root   4         a              0.264634255 a.u.                7.2011 eV
     Dipole Oscillator Strength                    0.0281898672
  Root   5         a              0.264634255 a.u.                7.2011 eV
     Dipole Oscillator Strength                    0.0281898672
 Total times  cpu:       41.2s     wall:       47.8s
