 Output coordinates in angstroms (scale by  1.889725989 to convert to a.u.)

  No.       Tag          Charge          X              Y              Z
 ---- ---------------- ---------- -------------- -------------- --------------
    1 S                   16.0000     0.00000000     0.00000000     0.00000000

         Total DFT energy =     -397.964464328468
         Total DFT energy =     -397.983893423815
         Total DFT energy =     -397.984745727194
         Total DFT energy =     -397.984834530866
         Total DFT energy =     -397.984850998823
         Total DFT energy =     -397.984851432032
         Total DFT energy =     -397.984851432032

                    DFT Final Alpha Molecular Orbital Analysis
                    ------------------------------------------

 Vector    1  Occ=1.000000D+00  E=-8.835923D+01

 Vector   39  Occ=0.000000D+00  E= 1.779353D+00

 Vector   40  Occ=0.000000D+00  E= 1.779353D+00

 Vector   41  Occ=0.000000D+00  E= 1.811246D+00

 Vector   42  Occ=0.000000D+00  E= 1.811246D+00

 Vector   43  Occ=0.000000D+00  E= 1.823477D+00

 Vector   44  Occ=0.000000D+00  E= 2.101900D+00

 Vector   45  Occ=0.000000D+00  E= 2.101900D+00

 Vector   46  Occ=0.000000D+00  E= 2.131303D+00

 Vector   47  Occ=0.000000D+00  E= 2.131303D+00

 Vector   48  Occ=0.000000D+00  E= 2.149316D+00

 Vector   49  Occ=0.000000D+00  E= 2.149316D+00

 Vector   50  Occ=0.000000D+00  E= 2.155350D+00

 Vector   51  Occ=0.000000D+00  E= 2.248628D+00

 Vector   52  Occ=0.000000D+00  E= 2.248628D+00

 Vector   53  Occ=0.000000D+00  E= 2.278738D+00

 Vector   54  Occ=0.000000D+00  E= 2.716562D+00

 Vector   55  Occ=0.000000D+00  E= 4.263129D+00

 Vector   56  Occ=0.000000D+00  E= 4.263129D+00

 Vector   57  Occ=0.000000D+00  E= 4.297707D+00

 Vector   58  Occ=0.000000D+00  E= 4.441418D+00

 Vector   59  Occ=0.000000D+00  E= 6.936779D+00

 Vector    1  Occ=1.000000D+00  E=-8.835029D+01

 Vector    2  Occ=1.000000D+00  E=-7.950314D+00

 Vector    3  Occ=1.000000D+00  E=-5.965184D+00

 Vector    4  Occ=1.000000D+00  E=-5.965184D+00

 Vector    5  Occ=1.000000D+00  E=-5.955516D+00

 Vector    6  Occ=1.000000D+00  E=-7.567407D-01

 Vector    7  Occ=1.000000D+00  E=-3.788461D-01

 Vector    8  Occ=0.000000D+00  E=-6.417786D-02

 Vector    9  Occ=0.000000D+00  E=-6.417786D-02

 Vector   10  Occ=0.000000D+00  E= 7.090717D-02

 Vector   11  Occ=0.000000D+00  E= 8.874692D-02

 Vector   12  Occ=0.000000D+00  E= 9.087950D-02

 Vector   13  Occ=0.000000D+00  E= 9.087950D-02

 Vector   14  Occ=0.000000D+00  E= 2.617810D-01

 Vector   15  Occ=0.000000D+00  E= 2.618148D-01

 Vector   16  Occ=0.000000D+00  E= 2.618148D-01

 Vector   17  Occ=0.000000D+00  E= 2.679882D-01

 Vector   18  Occ=0.000000D+00  E= 2.679882D-01

 Vector   19  Occ=0.000000D+00  E= 3.241745D-01

 Vector   20  Occ=0.000000D+00  E= 3.606887D-01

 Vector   21  Occ=0.000000D+00  E= 3.640052D-01

 Vector   22  Occ=0.000000D+00  E= 3.640052D-01

 Vector   23  Occ=0.000000D+00  E= 6.755409D-01

 Vector   24  Occ=0.000000D+00  E= 6.755409D-01

 Vector   25  Occ=0.000000D+00  E= 6.786883D-01

 Vector   26  Occ=0.000000D+00  E= 6.902610D-01

 Vector   27  Occ=0.000000D+00  E= 6.902610D-01

 Vector   28  Occ=0.000000D+00  E= 8.144734D-01

 Vector   29  Occ=0.000000D+00  E= 8.144734D-01

 Vector   30  Occ=0.000000D+00  E= 8.154514D-01

 Vector   31  Occ=0.000000D+00  E= 8.154514D-01

 Vector   32  Occ=0.000000D+00  E= 8.159554D-01

 Vector   33  Occ=0.000000D+00  E= 8.159554D-01

 Vector   34  Occ=0.000000D+00  E= 8.164535D-01

 Vector   35  Occ=0.000000D+00  E= 9.528836D-01

 Vector   36  Occ=0.000000D+00  E= 9.544153D-01

 Vector   37  Occ=0.000000D+00  E= 9.544154D-01

 Vector   38  Occ=0.000000D+00  E= 1.086428D+00

 Vector   39  Occ=0.000000D+00  E= 1.851986D+00

 Vector   40  Occ=0.000000D+00  E= 1.851986D+00

 Vector   41  Occ=0.000000D+00  E= 1.855706D+00

 Vector   42  Occ=0.000000D+00  E= 1.857327D+00

 Vector   43  Occ=0.000000D+00  E= 1.857327D+00

 Vector   44  Occ=0.000000D+00  E= 2.192718D+00

 Vector   45  Occ=0.000000D+00  E= 2.192719D+00

 Vector   46  Occ=0.000000D+00  E= 2.195938D+00

 Vector   47  Occ=0.000000D+00  E= 2.196331D+00

 Vector   48  Occ=0.000000D+00  E= 2.196331D+00

 Vector   49  Occ=0.000000D+00  E= 2.202501D+00

 Vector   50  Occ=0.000000D+00  E= 2.202501D+00

 Vector   51  Occ=0.000000D+00  E= 2.289350D+00

 Vector   52  Occ=0.000000D+00  E= 2.289350D+00

 Vector   53  Occ=0.000000D+00  E= 2.290357D+00

 Vector   54  Occ=0.000000D+00  E= 2.734642D+00

 Vector   55  Occ=0.000000D+00  E= 4.308855D+00

 Vector   56  Occ=0.000000D+00  E= 4.308855D+00

 Vector   57  Occ=0.000000D+00  E= 4.311316D+00

 Vector   58  Occ=0.000000D+00  E= 4.465959D+00

 Vector   59  Occ=0.000000D+00  E= 6.977618D+00

  Root   1         a              0.000266056 a.u.                0.0072 eV
     Dipole Oscillator Strength                    0.0000000000
  Root   2         a              0.000266097 a.u.                0.0072 eV
     Dipole Oscillator Strength                    0.0000000000
  Root   3         a              0.263351920 a.u.                7.1662 eV
     Dipole Oscillator Strength                    0.0379887851
  Root   4         a              0.284288075 a.u.                7.7359 eV
     Dipole Oscillator Strength                    0.1103264457
  Root   5         a              0.305825345 a.u.                8.3219 eV
     Dipole Oscillator Strength                    0.0000000000
 Total times  cpu:       48.2s     wall:       55.6s
