 Output coordinates in angstroms (scale by  1.889725989 to convert to a.u.)

  No.       Tag          Charge          X              Y              Z
 ---- ---------------- ---------- -------------- -------------- --------------
    1 Se                  34.0000     0.00000000     0.00000000     0.00000000

         Total DFT energy =    -2401.206092190778
         Total DFT energy =    -2401.229776440487
         Total DFT energy =    -2401.230584821484
         Total DFT energy =    -2401.230743052828
         Total DFT energy =    -2401.230766144230
         Total DFT energy =    -2401.230767477068
         Total DFT energy =    -2401.230767510494
         Total DFT energy =    -2401.230767510494

                    DFT Final Alpha Molecular Orbital Analysis
                    ------------------------------------------

 Vector    1  Occ=1.000000D+00  E=-4.523920D+02

 Vector   59  Occ=0.000000D+00  E= 1.779122D+00

 Vector   60  Occ=0.000000D+00  E= 1.784155D+00

 Vector   61  Occ=0.000000D+00  E= 1.784155D+00

 Vector   62  Occ=0.000000D+00  E= 1.789718D+00

 Vector   63  Occ=0.000000D+00  E= 1.810596D+00

 Vector   64  Occ=0.000000D+00  E= 3.479759D+00

 Vector   65  Occ=0.000000D+00  E= 3.479759D+00

 Vector   66  Occ=0.000000D+00  E= 3.515630D+00

 Vector   67  Occ=0.000000D+00  E= 3.704935D+00

 Vector   68  Occ=0.000000D+00  E= 7.266449D+00

 Vector   69  Occ=0.000000D+00  E= 7.451117D+01

 Vector    1  Occ=1.000000D+00  E=-4.523887D+02

 Vector    2  Occ=1.000000D+00  E=-5.768171D+01

 Vector    3  Occ=1.000000D+00  E=-5.183060D+01

 Vector    4  Occ=1.000000D+00  E=-5.183060D+01

 Vector    5  Occ=1.000000D+00  E=-5.182645D+01

 Vector    6  Occ=1.000000D+00  E=-7.805255D+00

 Vector    7  Occ=1.000000D+00  E=-5.794463D+00

 Vector    8  Occ=1.000000D+00  E=-5.794463D+00

 Vector    9  Occ=1.000000D+00  E=-5.779619D+00

 Vector   10  Occ=1.000000D+00  E=-2.222400D+00

 Vector   11  Occ=1.000000D+00  E=-2.222400D+00

 Vector   12  Occ=1.000000D+00  E=-2.212396D+00

 Vector   13  Occ=1.000000D+00  E=-2.212396D+00

 Vector   14  Occ=1.000000D+00  E=-2.208822D+00

 Vector   15  Occ=1.000000D+00  E=-7.420673D-01

 Vector   16  Occ=1.000000D+00  E=-3.556940D-01

 Vector   17  Occ=0.000000D+00  E=-6.129419D-02

 Vector   18  Occ=0.000000D+00  E=-6.129419D-02

 Vector   19  Occ=0.000000D+00  E= 5.354344D-02

 Vector   20  Occ=0.000000D+00  E= 7.609598D-02

 Vector   21  Occ=0.000000D+00  E= 7.748631D-02

 Vector   22  Occ=0.000000D+00  E= 7.748631D-02

 Vector   23  Occ=0.000000D+00  E= 2.209858D-01

 Vector   24  Occ=0.000000D+00  E= 2.212115D-01

 Vector   25  Occ=0.000000D+00  E= 2.212115D-01

 Vector   26  Occ=0.000000D+00  E= 2.256430D-01

 Vector   27  Occ=0.000000D+00  E= 2.256430D-01

 Vector   28  Occ=0.000000D+00  E= 2.454383D-01

 Vector   29  Occ=0.000000D+00  E= 3.096593D-01

 Vector   30  Occ=0.000000D+00  E= 3.122590D-01

 Vector   31  Occ=0.000000D+00  E= 3.122590D-01

 Vector   32  Occ=0.000000D+00  E= 6.143932D-01

 Vector   33  Occ=0.000000D+00  E= 6.143932D-01

 Vector   34  Occ=0.000000D+00  E= 6.158774D-01

 Vector   35  Occ=0.000000D+00  E= 6.280464D-01

 Vector   36  Occ=0.000000D+00  E= 6.280464D-01

 Vector   37  Occ=0.000000D+00  E= 6.899313D-01

 Vector   38  Occ=0.000000D+00  E= 6.899313D-01

 Vector   39  Occ=0.000000D+00  E= 6.905404D-01

 Vector   40  Occ=0.000000D+00  E= 6.905404D-01

 Vector   41  Occ=0.000000D+00  E= 6.911765D-01

 Vector   42  Occ=0.000000D+00  E= 6.911765D-01

 Vector   43  Occ=0.000000D+00  E= 6.917534D-01

 Vector   44  Occ=0.000000D+00  E= 7.751716D-01

 Vector   45  Occ=0.000000D+00  E= 8.133692D-01

 Vector   46  Occ=0.000000D+00  E= 8.133693D-01

 Vector   47  Occ=0.000000D+00  E= 8.147755D-01

 Vector   48  Occ=0.000000D+00  E= 1.349209D+00

 Vector   49  Occ=0.000000D+00  E= 1.757073D+00

 Vector   50  Occ=0.000000D+00  E= 1.757073D+00

 Vector   51  Occ=0.000000D+00  E= 1.760274D+00

 Vector   52  Occ=0.000000D+00  E= 1.760274D+00

 Vector   53  Occ=0.000000D+00  E= 1.760417D+00

 Vector   54  Occ=0.000000D+00  E= 1.763954D+00

 Vector   55  Occ=0.000000D+00  E= 1.763954D+00

 Vector   56  Occ=0.000000D+00  E= 1.813683D+00

 Vector   57  Occ=0.000000D+00  E= 1.813683D+00

 Vector   58  Occ=0.000000D+00  E= 1.814129D+00

 Vector   59  Occ=0.000000D+00  E= 1.814129D+00

 Vector   60  Occ=0.000000D+00  E= 1.816730D+00

 Vector   61  Occ=0.000000D+00  E= 1.817203D+00

 Vector   62  Occ=0.000000D+00  E= 1.817203D+00

 Vector   63  Occ=0.000000D+00  E= 1.820996D+00

 Vector   64  Occ=0.000000D+00  E= 3.524042D+00

 Vector   65  Occ=0.000000D+00  E= 3.524042D+00

 Vector   66  Occ=0.000000D+00  E= 3.529498D+00

 Vector   67  Occ=0.000000D+00  E= 3.733038D+00

 Vector   68  Occ=0.000000D+00  E= 7.299889D+00

 Vector   69  Occ=0.000000D+00  E= 7.451506D+01

  Root   1         a              0.000183600 a.u.                0.0050 eV
     Dipole Oscillator Strength                    0.0000000000
  Root   2         a              0.000183600 a.u.                0.0050 eV
     Dipole Oscillator Strength                    0.0000000000
  Root   3         a              0.237581465 a.u.                6.4649 eV
     Dipole Oscillator Strength                    0.0402481546
  Root   4         a              0.257718236 a.u.                7.0129 eV
     Dipole Oscillator Strength                    0.1167477031
  Root   5         a              0.282326232 a.u.                7.6825 eV
     Dipole Oscillator Strength                    0.0000000000
 Total times  cpu:      126.7s     wall:      146.4s
