 Output coordinates in angstroms (scale by  1.889725989 to convert to a.u.)

  No.       Tag          Charge          X              Y              Z
 ---- ---------------- ---------- -------------- -------------- --------------
    1 Be                   4.0000     0.00000000     0.00000000    -0.94160215
    2 F                    9.0000     0.00000000     0.00000000     0.41848985

         Total DFT energy =     -114.553945787757

                    DFT Final Alpha Molecular Orbital Analysis
                    ------------------------------------------

 Vector    1  Occ=1.000000D+00  E=-2.440287D+01

 Vector   59  Occ=0.000000D+00  E= 7.538730D+00

 Vector   60  Occ=0.000000D+00  E= 7.729364D+00

 Vector   61  Occ=0.000000D+00  E= 8.187831D+00

 Vector   62  Occ=0.000000D+00  E= 8.438348D+00

 Vector   63  Occ=0.000000D+00  E= 8.438348D+00

 Vector   64  Occ=0.000000D+00  E= 8.438686D+00

 Vector   65  Occ=0.000000D+00  E= 8.438686D+00

 Vector   66  Occ=0.000000D+00  E= 8.792957D+00

 Vector   67  Occ=0.000000D+00  E= 8.950750D+00

 Vector   68  Occ=0.000000D+00  E= 2.239577D+01

 Vector   69  Occ=0.000000D+00  E= 9.559164D+01

 Vector    1  Occ=1.000000D+00  E=-2.440302D+01

 Vector    2  Occ=1.000000D+00  E=-4.046403D+00

 Vector    3  Occ=1.000000D+00  E=-1.230263D+00

 Vector    4  Occ=1.000000D+00  E=-5.598274D-01

 Vector    5  Occ=1.000000D+00  E=-5.147401D-01

 Vector    6  Occ=1.000000D+00  E=-5.147401D-01

 Vector    7  Occ=0.000000D+00  E=-2.182595D-02

 Vector    8  Occ=0.000000D+00  E= 4.751129D-02

 Vector    9  Occ=0.000000D+00  E= 4.751129D-02

 Vector   10  Occ=0.000000D+00  E= 5.875291D-02

 Vector   11  Occ=0.000000D+00  E= 8.746823D-02

 Vector   12  Occ=0.000000D+00  E= 1.272639D-01

 Vector   13  Occ=0.000000D+00  E= 1.272639D-01

 Vector   14  Occ=0.000000D+00  E= 1.679412D-01

 Vector   15  Occ=0.000000D+00  E= 1.928354D-01

 Vector   16  Occ=0.000000D+00  E= 1.928354D-01

 Vector   17  Occ=0.000000D+00  E= 2.002141D-01

 Vector   18  Occ=0.000000D+00  E= 3.110930D-01

 Vector   19  Occ=0.000000D+00  E= 3.581305D-01

 Vector   20  Occ=0.000000D+00  E= 3.581306D-01

 Vector   21  Occ=0.000000D+00  E= 4.024132D-01

 Vector   22  Occ=0.000000D+00  E= 4.398831D-01

 Vector   23  Occ=0.000000D+00  E= 4.398835D-01

 Vector   24  Occ=0.000000D+00  E= 4.967033D-01

 Vector   25  Occ=0.000000D+00  E= 5.998742D-01

 Vector   26  Occ=0.000000D+00  E= 5.998742D-01

 Vector   27  Occ=0.000000D+00  E= 6.626682D-01

 Vector   28  Occ=0.000000D+00  E= 6.626683D-01

 Vector   29  Occ=0.000000D+00  E= 6.753756D-01

 Vector   30  Occ=0.000000D+00  E= 7.400058D-01

 Vector   31  Occ=0.000000D+00  E= 7.400059D-01

 Vector   32  Occ=0.000000D+00  E= 7.518185D-01

 Vector   33  Occ=0.000000D+00  E= 9.116864D-01

 Vector   34  Occ=0.000000D+00  E= 1.015608D+00

 Vector   35  Occ=0.000000D+00  E= 1.015608D+00

 Vector   36  Occ=0.000000D+00  E= 1.068067D+00

 Vector   37  Occ=0.000000D+00  E= 1.295168D+00

 Vector   38  Occ=0.000000D+00  E= 1.655381D+00

 Vector   39  Occ=0.000000D+00  E= 2.266050D+00

 Vector   40  Occ=0.000000D+00  E= 2.266050D+00

 Vector   41  Occ=0.000000D+00  E= 2.288285D+00

 Vector   42  Occ=0.000000D+00  E= 2.288285D+00

 Vector   43  Occ=0.000000D+00  E= 2.641559D+00

 Vector   44  Occ=0.000000D+00  E= 2.776948D+00

 Vector   45  Occ=0.000000D+00  E= 2.776948D+00

 Vector   46  Occ=0.000000D+00  E= 2.871998D+00

 Vector   47  Occ=0.000000D+00  E= 3.814975D+00

 Vector   48  Occ=0.000000D+00  E= 5.538262D+00

 Vector   49  Occ=0.000000D+00  E= 5.538262D+00

 Vector   50  Occ=0.000000D+00  E= 6.330402D+00

 Vector   51  Occ=0.000000D+00  E= 6.871552D+00

 Vector   52  Occ=0.000000D+00  E= 6.871553D+00

 Vector   53  Occ=0.000000D+00  E= 6.887581D+00

 Vector   54  Occ=0.000000D+00  E= 6.887581D+00

 Vector   55  Occ=0.000000D+00  E= 6.908847D+00

 Vector   56  Occ=0.000000D+00  E= 6.908847D+00

 Vector   57  Occ=0.000000D+00  E= 7.055507D+00

 Vector   58  Occ=0.000000D+00  E= 7.537700D+00

 Vector   59  Occ=0.000000D+00  E= 7.537700D+00

 Vector   60  Occ=0.000000D+00  E= 7.738108D+00

 Vector   61  Occ=0.000000D+00  E= 8.199420D+00

 Vector   62  Occ=0.000000D+00  E= 8.436250D+00

 Vector   63  Occ=0.000000D+00  E= 8.436250D+00

 Vector   64  Occ=0.000000D+00  E= 8.439015D+00

 Vector   65  Occ=0.000000D+00  E= 8.439015D+00

 Vector   66  Occ=0.000000D+00  E= 8.796144D+00

 Vector   67  Occ=0.000000D+00  E= 8.951648D+00

 Vector   68  Occ=0.000000D+00  E= 2.239526D+01

 Vector   69  Occ=0.000000D+00  E= 9.559149D+01

     Multipole analysis of the density
     ---------------------------------

     L   x y z        total         alpha         beta         nuclear
     -   - - -        -----         -----         ----         -------
     0   0 0 0     -0.000000     -7.000000     -6.000000     13.000000

     1   1 0 0     -0.000000     -0.000000     -0.000000      0.000000
     1   0 1 0     -0.000000     -0.000000     -0.000000      0.000000
     1   0 0 1     -0.436163      1.306328     -1.742492      0.000000

     2   2 0 0     -7.480632     -5.006787     -2.473845      0.000000
     2   1 1 0     -0.000000     -0.000000     -0.000000      0.000000
     2   1 0 1     -0.000000     -0.000000     -0.000000      0.000000
     2   0 2 0     -7.480632     -5.006787     -2.473845      0.000000
     2   0 1 1     -0.000000     -0.000000     -0.000000      0.000000

  Root   1         a              0.153555454 a.u.                4.1785 eV
     Dipole Oscillator Strength                    0.1886936857
  Root   2         a              0.153555454 a.u.                4.1785 eV
     Dipole Oscillator Strength                    0.1886936843
  Root   3         a              0.224885722 a.u.                6.1195 eV
     Dipole Oscillator Strength                    0.1684081607
  Root   4         a              0.237438611 a.u.                6.4610 eV
     Dipole Oscillator Strength                    0.0002811160
  Root   5         a              0.261633331 a.u.                7.1194 eV
     Dipole Oscillator Strength                    0.0068552769
  Root   6         a              0.261633332 a.u.                7.1194 eV
     Dipole Oscillator Strength                    0.0068552793
  Root   7         a              0.285010981 a.u.                7.7555 eV
     Dipole Oscillator Strength                    0.0266613551
  Root   8         a              0.285010996 a.u.                7.7555 eV
     Dipole Oscillator Strength                    0.0266613613
  Root   9         a              0.319951758 a.u.                8.7063 eV
     Dipole Oscillator Strength                    0.0590967954
  Root  10         a              0.327270989 a.u.                8.9055 eV
     Dipole Oscillator Strength                    0.0023415475
 Total times  cpu:       62.1s     wall:       75.7s
