 Output coordinates in angstroms (scale by  1.889725989 to convert to a.u.)

  No.       Tag          Charge          X              Y              Z
 ---- ---------------- ---------- -------------- -------------- --------------
    1 B                    5.0000     0.00000000     0.00000000     0.14640257
    2 H                    1.0000    -1.06427600     0.00000000    -0.36600643
    3 H                    1.0000     1.06427600     0.00000000    -0.36600643

         Total DFT energy =      -25.909527342687

                    DFT Final Alpha Molecular Orbital Analysis
                    ------------------------------------------

 Vector    1  Occ=1.000000D+00  E=-6.759285D+00

 Vector   43  Occ=0.000000D+00  E= 1.944309D+00

 Vector   44  Occ=0.000000D+00  E= 1.973101D+00

 Vector   45  Occ=0.000000D+00  E= 1.974470D+00

 Vector   46  Occ=0.000000D+00  E= 1.987684D+00

 Vector   47  Occ=0.000000D+00  E= 1.995245D+00

 Vector   48  Occ=0.000000D+00  E= 2.077476D+00

 Vector   49  Occ=0.000000D+00  E= 2.114509D+00

 Vector   50  Occ=0.000000D+00  E= 2.234491D+00

 Vector   51  Occ=0.000000D+00  E= 2.263343D+00

 Vector   52  Occ=0.000000D+00  E= 2.292227D+00

 Vector   53  Occ=0.000000D+00  E= 2.481764D+00

 Vector   54  Occ=0.000000D+00  E= 2.505311D+00

 Vector   55  Occ=0.000000D+00  E= 2.752424D+00

 Vector   56  Occ=0.000000D+00  E= 3.047920D+00

 Vector   57  Occ=0.000000D+00  E= 3.075423D+00

 Vector   58  Occ=0.000000D+00  E= 3.664702D+00

 Vector   59  Occ=0.000000D+00  E= 3.821336D+00

 Vector   60  Occ=0.000000D+00  E= 4.922142D+00

 Vector   61  Occ=0.000000D+00  E= 2.123078D+01

 Vector    1  Occ=1.000000D+00  E=-6.749071D+00

 Vector    2  Occ=1.000000D+00  E=-6.076733D-01

 Vector    3  Occ=1.000000D+00  E=-4.826652D-01

 Vector    4  Occ=0.000000D+00  E= 1.785175D-02

 Vector    5  Occ=0.000000D+00  E= 2.554936D-02

 Vector    6  Occ=0.000000D+00  E= 4.289057D-02

 Vector    7  Occ=0.000000D+00  E= 1.360989D-01

 Vector    8  Occ=0.000000D+00  E= 1.480448D-01

 Vector    9  Occ=0.000000D+00  E= 1.686444D-01

 Vector   10  Occ=0.000000D+00  E= 1.697838D-01

 Vector   11  Occ=0.000000D+00  E= 1.703148D-01

 Vector   12  Occ=0.000000D+00  E= 1.777842D-01

 Vector   13  Occ=0.000000D+00  E= 1.850238D-01

 Vector   14  Occ=0.000000D+00  E= 1.935234D-01

 Vector   15  Occ=0.000000D+00  E= 2.129942D-01

 Vector   16  Occ=0.000000D+00  E= 2.951569D-01

 Vector   17  Occ=0.000000D+00  E= 3.307609D-01

 Vector   18  Occ=0.000000D+00  E= 3.545186D-01

 Vector   19  Occ=0.000000D+00  E= 3.558901D-01

 Vector   20  Occ=0.000000D+00  E= 3.616705D-01

 Vector   21  Occ=0.000000D+00  E= 3.761748D-01

 Vector   22  Occ=0.000000D+00  E= 4.426307D-01

 Vector   23  Occ=0.000000D+00  E= 4.465202D-01

 Vector   24  Occ=0.000000D+00  E= 4.639507D-01

 Vector   25  Occ=0.000000D+00  E= 6.076207D-01

 Vector   26  Occ=0.000000D+00  E= 6.314734D-01

 Vector   27  Occ=0.000000D+00  E= 6.456010D-01

 Vector   28  Occ=0.000000D+00  E= 6.556788D-01

 Vector   29  Occ=0.000000D+00  E= 6.978690D-01

 Vector   30  Occ=0.000000D+00  E= 8.239388D-01

 Vector   31  Occ=0.000000D+00  E= 8.752094D-01

 Vector   32  Occ=0.000000D+00  E= 8.845483D-01

 Vector   33  Occ=0.000000D+00  E= 1.006059D+00

 Vector   34  Occ=0.000000D+00  E= 1.050890D+00

 Vector   35  Occ=0.000000D+00  E= 1.116823D+00

 Vector   36  Occ=0.000000D+00  E= 1.610903D+00

 Vector   37  Occ=0.000000D+00  E= 1.634220D+00

 Vector   38  Occ=0.000000D+00  E= 1.657925D+00

 Vector   39  Occ=0.000000D+00  E= 1.813081D+00

 Vector   40  Occ=0.000000D+00  E= 1.841641D+00

 Vector   41  Occ=0.000000D+00  E= 1.904627D+00

 Vector   42  Occ=0.000000D+00  E= 1.937509D+00

 Vector   43  Occ=0.000000D+00  E= 1.992282D+00

 Vector   44  Occ=0.000000D+00  E= 2.006583D+00

 Vector   45  Occ=0.000000D+00  E= 2.010132D+00

 Vector   46  Occ=0.000000D+00  E= 2.023809D+00

 Vector   47  Occ=0.000000D+00  E= 2.035901D+00

 Vector   48  Occ=0.000000D+00  E= 2.095883D+00

 Vector   49  Occ=0.000000D+00  E= 2.142248D+00

 Vector   50  Occ=0.000000D+00  E= 2.279475D+00

 Vector   51  Occ=0.000000D+00  E= 2.282367D+00

 Vector   52  Occ=0.000000D+00  E= 2.338235D+00

 Vector   53  Occ=0.000000D+00  E= 2.488494D+00

 Vector   54  Occ=0.000000D+00  E= 2.524293D+00

 Vector   55  Occ=0.000000D+00  E= 2.778117D+00

 Vector   56  Occ=0.000000D+00  E= 3.061861D+00

 Vector   57  Occ=0.000000D+00  E= 3.084287D+00

 Vector   58  Occ=0.000000D+00  E= 3.696644D+00

 Vector   59  Occ=0.000000D+00  E= 3.832771D+00

 Vector   60  Occ=0.000000D+00  E= 4.950047D+00

 Vector   61  Occ=0.000000D+00  E= 2.125165D+01

     Multipole analysis of the density
     ---------------------------------

     L   x y z        total         alpha         beta         nuclear
     -   - - -        -----         -----         ----         -------
     0   0 0 0     -0.000000     -4.000000     -3.000000      7.000000

     1   1 0 0     -0.000000      0.000000     -0.000000      0.000000
     1   0 1 0      0.000000      0.000000     -0.000000      0.000000
     1   0 0 1     -0.204262     -0.640631      0.436369      0.000000

     2   2 0 0     -6.132755     -7.697038     -6.525487      8.089771
     2   1 1 0      0.000000      0.000000      0.000000      0.000000
     2   1 0 1      0.000000      0.000000      0.000000      0.000000
     2   0 2 0     -4.963295     -3.100979     -1.862317      0.000000
     2   0 1 1      0.000000      0.000000     -0.000000      0.000000

  Root   1         a              0.047138483 a.u.                1.2827 eV
     Dipole Oscillator Strength                    0.0034864588
  Root   2         a              0.197221902 a.u.                5.3667 eV
     Dipole Oscillator Strength                    0.0000000000
  Root   3         a              0.212877964 a.u.                5.7927 eV
     Dipole Oscillator Strength                    0.0603015309
  Root   4         a              0.234654793 a.u.                6.3853 eV
     Dipole Oscillator Strength                    0.0000000000
  Root   5         a              0.242073138 a.u.                6.5871 eV
     Dipole Oscillator Strength                    0.0007336608
  Root   6         a              0.274454739 a.u.                7.4683 eV
     Dipole Oscillator Strength                    0.0145383981
  Root   7         a              0.278361063 a.u.                7.5746 eV
     Dipole Oscillator Strength                    0.0233677258
  Root   8         a              0.291064692 a.u.                7.9203 eV
     Dipole Oscillator Strength                    0.1253884488
  Root   9         a              0.299943449 a.u.                8.1619 eV
     Dipole Oscillator Strength                    0.0244530879
  Root  10         a              0.309100409 a.u.                8.4111 eV
     Dipole Oscillator Strength                    0.0000000000
 Total times  cpu:       70.6s     wall:       82.2s
