 Output coordinates in angstroms (scale by  1.889725989 to convert to a.u.)

  No.       Tag          Charge          X              Y              Z
 ---- ---------------- ---------- -------------- -------------- --------------
    1 C                    6.0000     0.00000000     0.00000000    -0.62941308
    2 N                    7.0000     0.00000000     0.00000000     0.53949692

         Total DFT energy =      -92.660408118119

                    DFT Final Alpha Molecular Orbital Analysis
                    ------------------------------------------

 Vector    1  Occ=1.000000D+00  E=-1.424733D+01

 Vector    7  Occ=0.000000D+00  E=-1.478968D-01

 Vector    8  Occ=0.000000D+00  E= 6.803503D-02

 Vector    9  Occ=0.000000D+00  E= 9.818610D-02

 Vector   10  Occ=0.000000D+00  E= 9.818610D-02

 Vector   11  Occ=0.000000D+00  E= 1.220706D-01

 Vector   12  Occ=0.000000D+00  E= 2.351171D-01

 Vector   13  Occ=0.000000D+00  E= 2.421426D-01

 Vector   14  Occ=0.000000D+00  E= 2.421426D-01

 Vector   15  Occ=0.000000D+00  E= 2.668846D-01

 Vector   16  Occ=0.000000D+00  E= 2.668846D-01

 Vector   17  Occ=0.000000D+00  E= 2.761143D-01

 Vector   18  Occ=0.000000D+00  E= 3.065926D-01

 Vector   19  Occ=0.000000D+00  E= 3.065926D-01

 Vector   20  Occ=0.000000D+00  E= 3.478890D-01

 Vector   21  Occ=0.000000D+00  E= 4.200108D-01

 Vector   22  Occ=0.000000D+00  E= 4.807431D-01

 Vector   23  Occ=0.000000D+00  E= 4.807431D-01

 Vector   24  Occ=0.000000D+00  E= 4.926820D-01

 Vector   25  Occ=0.000000D+00  E= 4.926820D-01

 Vector   26  Occ=0.000000D+00  E= 5.744297D-01

 Vector   27  Occ=0.000000D+00  E= 6.712876D-01

 Vector   28  Occ=0.000000D+00  E= 7.401615D-01

 Vector   29  Occ=0.000000D+00  E= 7.401615D-01

 Vector   30  Occ=0.000000D+00  E= 7.772137D-01

 Vector   31  Occ=0.000000D+00  E= 8.468448D-01

 Vector   32  Occ=0.000000D+00  E= 9.162772D-01

 Vector   33  Occ=0.000000D+00  E= 9.162772D-01

 Vector   34  Occ=0.000000D+00  E= 1.037032D+00

 Vector   35  Occ=0.000000D+00  E= 1.037032D+00

 Vector   36  Occ=0.000000D+00  E= 1.042494D+00

 Vector   37  Occ=0.000000D+00  E= 1.306363D+00

 Vector   38  Occ=0.000000D+00  E= 1.326414D+00

 Vector   39  Occ=0.000000D+00  E= 1.326414D+00

 Vector   40  Occ=0.000000D+00  E= 1.451729D+00

 Vector   41  Occ=0.000000D+00  E= 1.451729D+00

 Vector   42  Occ=0.000000D+00  E= 1.518767D+00

 Vector   43  Occ=0.000000D+00  E= 1.634388D+00

 Vector   44  Occ=0.000000D+00  E= 1.634388D+00

 Vector   45  Occ=0.000000D+00  E= 1.688802D+00

 Vector   46  Occ=0.000000D+00  E= 1.953698D+00

 Vector   47  Occ=0.000000D+00  E= 2.055618D+00

 Vector   48  Occ=0.000000D+00  E= 2.055618D+00

 Vector   49  Occ=0.000000D+00  E= 2.319793D+00

 Vector   50  Occ=0.000000D+00  E= 2.731336D+00

 Vector   51  Occ=0.000000D+00  E= 2.731336D+00

 Vector   52  Occ=0.000000D+00  E= 2.827472D+00

 Vector   53  Occ=0.000000D+00  E= 2.852012D+00

 Vector   54  Occ=0.000000D+00  E= 2.852012D+00

 Vector   55  Occ=0.000000D+00  E= 3.048133D+00

 Vector   56  Occ=0.000000D+00  E= 3.048133D+00

 Vector   57  Occ=0.000000D+00  E= 3.154715D+00

 Vector   58  Occ=0.000000D+00  E= 3.154715D+00

 Vector   59  Occ=0.000000D+00  E= 3.257650D+00

 Vector   60  Occ=0.000000D+00  E= 3.257650D+00

 Vector   61  Occ=0.000000D+00  E= 3.296223D+00

 Vector   62  Occ=0.000000D+00  E= 3.381568D+00

 Vector   63  Occ=0.000000D+00  E= 3.476215D+00

 Vector   64  Occ=0.000000D+00  E= 3.476215D+00

 Vector   65  Occ=0.000000D+00  E= 3.766873D+00

 Vector   66  Occ=0.000000D+00  E= 4.005908D+00

 Vector   67  Occ=0.000000D+00  E= 4.005908D+00

 Vector   68  Occ=0.000000D+00  E= 4.213330D+00

 Vector   69  Occ=0.000000D+00  E= 4.526023D+00

 Vector   70  Occ=0.000000D+00  E= 4.526023D+00

 Vector   71  Occ=0.000000D+00  E= 4.683639D+00

 Vector   72  Occ=0.000000D+00  E= 4.683639D+00

 Vector   73  Occ=0.000000D+00  E= 4.742716D+00

 Vector   74  Occ=0.000000D+00  E= 4.742716D+00

 Vector   75  Occ=0.000000D+00  E= 4.984386D+00

 Vector   76  Occ=0.000000D+00  E= 5.000718D+00

 Vector   77  Occ=0.000000D+00  E= 5.000718D+00

 Vector   78  Occ=0.000000D+00  E= 5.107758D+00

 Vector   79  Occ=0.000000D+00  E= 5.671794D+00

 Vector   80  Occ=0.000000D+00  E= 5.671794D+00

 Vector   81  Occ=0.000000D+00  E= 6.249844D+00

 Vector   82  Occ=0.000000D+00  E= 6.718295D+00

 Vector   83  Occ=0.000000D+00  E= 8.106268D+00

 Vector   84  Occ=0.000000D+00  E= 1.205159D+01

 Vector   85  Occ=0.000000D+00  E= 3.467112D+01

 Vector   86  Occ=0.000000D+00  E= 5.162906D+01

     Multipole analysis of the density
     ---------------------------------

     L   x y z        total         alpha         beta         nuclear
     -   - - -        -----         -----         ----         -------
     0   0 0 0     -0.000000     -7.000000     -6.000000     13.000000

     1   1 0 0     -0.000000      0.000000     -0.000000      0.000000
     1   0 1 0     -0.000000      0.000000     -0.000000      0.000000
     1   0 0 1     -0.643514      0.539124     -1.182639     -0.000000

     2   2 0 0     -8.158505     -4.441737     -3.716768      0.000000
     2   1 1 0     -0.000000     -0.000000     -0.000000      0.000000
     2   1 0 1      0.000000      0.000000      0.000000      0.000000
     2   0 2 0     -8.158505     -4.441737     -3.716768      0.000000
     2   0 1 1      0.000000      0.000000      0.000000      0.000000

  Root   1         a              0.053895992 a.u.                1.4666 eV
     Dipole Oscillator Strength                    0.0036457874
  Root   2         a              0.053895992 a.u.                1.4666 eV
     Dipole Oscillator Strength                    0.0036456223
  Root   3         a              0.129358848 a.u.                3.5200 eV
     Dipole Oscillator Strength                    0.0332220680
  Root   4         a              0.238644559 a.u.                6.4939 eV
     Dipole Oscillator Strength                    0.0032125248
  Root   5         a              0.256433155 a.u.                6.9779 eV
     Dipole Oscillator Strength                    0.0000000000
  Root   6         a              0.256433898 a.u.                6.9779 eV
     Dipole Oscillator Strength                    0.0000000000
  Root   7         a              0.285502370 a.u.                7.7689 eV
     Dipole Oscillator Strength                    0.0000000000
  Root   8         a              0.304937620 a.u.                8.2978 eV
     Dipole Oscillator Strength                    0.0010614192
  Root   9         a              0.312156192 a.u.                8.4942 eV
     Dipole Oscillator Strength                    0.0000000000
  Root  10         a              0.312157401 a.u.                8.4942 eV
     Dipole Oscillator Strength                    0.0000000000
 Total times  cpu:      101.8s     wall:      117.6s
