 Output coordinates in angstroms (scale by  1.889725989 to convert to a.u.)

  No.       Tag          Charge          X              Y              Z
 ---- ---------------- ---------- -------------- -------------- --------------
    1 C                    6.0000     0.70256313     0.18635888     0.00000000
    2 F                    9.0000    -0.59211388    -0.02994113     0.00000000
    3 H                    1.0000     1.11364613    -0.84868313     0.00000000

         Total DFT energy =     -138.359925434155

                       DFT Final Molecular Orbital Analysis
                       ------------------------------------

 Vector    1  Occ=2.000000D+00  E=-2.452366D+01

 Vector   19  Occ=0.000000D+00  E= 2.889032D-01

 Vector   20  Occ=0.000000D+00  E= 3.184909D-01

 Vector   21  Occ=0.000000D+00  E= 3.297398D-01

 Vector   22  Occ=0.000000D+00  E= 3.500418D-01

 Vector   23  Occ=0.000000D+00  E= 3.739813D-01

 Vector   24  Occ=0.000000D+00  E= 3.752982D-01

 Vector   25  Occ=0.000000D+00  E= 4.089215D-01

 Vector   26  Occ=0.000000D+00  E= 4.336344D-01

 Vector   27  Occ=0.000000D+00  E= 4.682826D-01

 Vector   28  Occ=0.000000D+00  E= 4.799042D-01

 Vector   29  Occ=0.000000D+00  E= 6.328497D-01

 Vector   30  Occ=0.000000D+00  E= 6.477434D-01

 Vector   31  Occ=0.000000D+00  E= 6.674472D-01

 Vector   32  Occ=0.000000D+00  E= 6.706622D-01

 Vector   33  Occ=0.000000D+00  E= 6.852369D-01

 Vector   34  Occ=0.000000D+00  E= 7.098252D-01

 Vector   35  Occ=0.000000D+00  E= 7.756855D-01

 Vector   36  Occ=0.000000D+00  E= 8.066795D-01

 Vector   37  Occ=0.000000D+00  E= 8.869085D-01

 Vector   38  Occ=0.000000D+00  E= 9.082426D-01

 Vector   39  Occ=0.000000D+00  E= 9.225963D-01

 Vector   40  Occ=0.000000D+00  E= 1.044744D+00

 Vector   41  Occ=0.000000D+00  E= 1.112958D+00

 Vector   42  Occ=0.000000D+00  E= 1.130965D+00

 Vector   43  Occ=0.000000D+00  E= 1.174518D+00

 Vector   44  Occ=0.000000D+00  E= 1.226352D+00

 Vector   45  Occ=0.000000D+00  E= 1.339577D+00

 Vector   46  Occ=0.000000D+00  E= 1.520676D+00

 Vector   47  Occ=0.000000D+00  E= 1.544681D+00

 Vector   48  Occ=0.000000D+00  E= 1.575579D+00

 Vector   49  Occ=0.000000D+00  E= 1.895154D+00

 Vector   50  Occ=0.000000D+00  E= 1.910567D+00

 Vector   51  Occ=0.000000D+00  E= 2.098680D+00

 Vector   52  Occ=0.000000D+00  E= 2.241400D+00

 Vector   53  Occ=0.000000D+00  E= 2.243212D+00

 Vector   54  Occ=0.000000D+00  E= 2.271672D+00

 Vector   55  Occ=0.000000D+00  E= 2.378226D+00

 Vector   56  Occ=0.000000D+00  E= 2.430758D+00

 Vector   57  Occ=0.000000D+00  E= 2.590107D+00

 Vector   58  Occ=0.000000D+00  E= 2.716292D+00

 Vector   59  Occ=0.000000D+00  E= 2.753461D+00

 Vector   60  Occ=0.000000D+00  E= 2.821734D+00

 Vector   61  Occ=0.000000D+00  E= 2.848808D+00

 Vector   62  Occ=0.000000D+00  E= 2.903776D+00

 Vector   63  Occ=0.000000D+00  E= 3.117219D+00

 Vector   64  Occ=0.000000D+00  E= 3.153237D+00

 Vector   65  Occ=0.000000D+00  E= 3.179108D+00

 Vector   66  Occ=0.000000D+00  E= 3.179882D+00

 Vector   67  Occ=0.000000D+00  E= 3.265744D+00

 Vector   68  Occ=0.000000D+00  E= 3.289073D+00

 Vector   69  Occ=0.000000D+00  E= 3.371599D+00

 Vector   70  Occ=0.000000D+00  E= 3.375149D+00

 Vector   71  Occ=0.000000D+00  E= 3.490171D+00

 Vector   72  Occ=0.000000D+00  E= 3.554602D+00

 Vector   73  Occ=0.000000D+00  E= 3.648476D+00

 Vector   74  Occ=0.000000D+00  E= 3.731042D+00

 Vector   75  Occ=0.000000D+00  E= 3.768730D+00

 Vector   76  Occ=0.000000D+00  E= 4.030761D+00

 Vector   77  Occ=0.000000D+00  E= 4.521291D+00

 Vector   78  Occ=0.000000D+00  E= 4.932633D+00

 Vector   79  Occ=0.000000D+00  E= 6.852658D+00

 Vector   80  Occ=0.000000D+00  E= 6.853365D+00

 Vector   81  Occ=0.000000D+00  E= 6.961364D+00

 Vector   82  Occ=0.000000D+00  E= 6.985595D+00

 Vector   83  Occ=0.000000D+00  E= 7.306244D+00

 Vector   84  Occ=0.000000D+00  E= 7.348061D+00

 Vector   85  Occ=0.000000D+00  E= 7.367965D+00

 Vector   86  Occ=0.000000D+00  E= 7.574220D+00

 Vector   87  Occ=0.000000D+00  E= 7.633636D+00

 Vector   88  Occ=0.000000D+00  E= 7.944347D+00

 Vector   89  Occ=0.000000D+00  E= 8.341170D+00

 Vector   90  Occ=0.000000D+00  E= 8.441198D+00

 Vector   91  Occ=0.000000D+00  E= 8.470963D+00

 Vector   92  Occ=0.000000D+00  E= 8.786228D+00

 Vector   93  Occ=0.000000D+00  E= 8.839858D+00

 Vector   94  Occ=0.000000D+00  E= 8.846734D+00

 Vector   95  Occ=0.000000D+00  E= 9.722646D+00

 Vector   96  Occ=0.000000D+00  E= 2.233498D+01

 Vector   97  Occ=0.000000D+00  E= 3.466485D+01

 Vector   98  Occ=0.000000D+00  E= 9.552203D+01

     Multipole analysis of the density
     ---------------------------------

     L   x y z        total         alpha         beta         nuclear
     -   - - -        -----         -----         ----         -------
     0   0 0 0     -0.000000     -8.000000     -8.000000     16.000000

     1   1 0 0      0.001540      0.000770      0.000770     -0.000000
     1   0 1 0     -0.618066     -0.309033     -0.309033      0.000000
     1   0 0 1     -0.000000     -0.000000     -0.000000      0.000000

     2   2 0 0     -9.023242    -17.648079    -17.648079     26.272916
     2   1 1 0     -1.449667     -0.724829     -0.724829     -0.000009
     2   1 0 1      0.000000      0.000000      0.000000      0.000000
     2   0 2 0     -9.354194     -6.349621     -6.349621      3.345048
     2   0 1 1      0.000000      0.000000      0.000000      0.000000

  Root   1 singlet a              0.086554923 a.u.                2.3553 eV
     Dipole Oscillator Strength                    0.0100768707
  Root   2 singlet a              0.247469603 a.u.                6.7340 eV
     Dipole Oscillator Strength                    0.0687897823
  Root   3 singlet a              0.284258284 a.u.                7.7351 eV
     Dipole Oscillator Strength                    0.0270911281
  Root   4 singlet a              0.303957511 a.u.                8.2711 eV
     Dipole Oscillator Strength                    0.0324032757
  Root   5 singlet a              0.321593947 a.u.                8.7510 eV
     Dipole Oscillator Strength                    0.0305922531
  Root   6 singlet a              0.322458980 a.u.                8.7746 eV
     Dipole Oscillator Strength                    0.0055763098
  Root   7 singlet a              0.349763820 a.u.                9.5176 eV
     Dipole Oscillator Strength                    0.0527935602
  Root   8 singlet a              0.364856643 a.u.                9.9283 eV
     Dipole Oscillator Strength                    0.0058464572
  Root   9 singlet a              0.368621531 a.u.               10.0307 eV
     Dipole Oscillator Strength                    0.0970960720
  Root  10 singlet a              0.398076294 a.u.               10.8322 eV
     Dipole Oscillator Strength                    0.0706389001
  Root   1 triplet a              0.019380515 a.u.                0.5274 eV
  Root   2 triplet a              0.230448246 a.u.                6.2708 eV
  Root   3 triplet a              0.253728518 a.u.                6.9043 eV
  Root   4 triplet a              0.261289249 a.u.                7.1100 eV
  Root   5 triplet a              0.292320327 a.u.                7.9544 eV
  Root   6 triplet a              0.295690496 a.u.                8.0462 eV
  Root   7 triplet a              0.318089857 a.u.                8.6557 eV
  Root   8 triplet a              0.332663810 a.u.                9.0522 eV
  Root   9 triplet a              0.335934400 a.u.                9.1412 eV
  Root  10 triplet a              0.354002622 a.u.                9.6329 eV
 Total times  cpu:      159.4s     wall:      183.3s
