 Output coordinates in angstroms (scale by  1.889725989 to convert to a.u.)

  No.       Tag          Charge          X              Y              Z
 ---- ---------------- ---------- -------------- -------------- --------------
    1 N                    7.0000     0.00000000     0.00000000    -1.26678200
    2 C                    6.0000     0.00000000     0.00000000    -0.03853300
    3 O                    8.0000     0.00000000     0.00000000     1.13733400

         Total DFT energy =     -167.933573876324

                    DFT Final Alpha Molecular Orbital Analysis
                    ------------------------------------------

 Vector    1  Occ=1.000000D+00  E=-1.905724D+01

 Vector   53  Occ=0.000000D+00  E= 1.171805D+00

 Vector   54  Occ=0.000000D+00  E= 1.173269D+00

 Vector   55  Occ=0.000000D+00  E= 1.288402D+00

 Vector   56  Occ=0.000000D+00  E= 1.376744D+00

 Vector   57  Occ=0.000000D+00  E= 1.382064D+00

 Vector   58  Occ=0.000000D+00  E= 1.417493D+00

 Vector   59  Occ=0.000000D+00  E= 1.421748D+00

 Vector   60  Occ=0.000000D+00  E= 1.535106D+00

 Vector   61  Occ=0.000000D+00  E= 1.696246D+00

 Vector   62  Occ=0.000000D+00  E= 1.698647D+00

 Vector   63  Occ=0.000000D+00  E= 1.797532D+00

 Vector   64  Occ=0.000000D+00  E= 1.817281D+00

 Vector   65  Occ=0.000000D+00  E= 1.818233D+00

 Vector   66  Occ=0.000000D+00  E= 1.995642D+00

 Vector   67  Occ=0.000000D+00  E= 2.048267D+00

 Vector   68  Occ=0.000000D+00  E= 2.057406D+00

 Vector   69  Occ=0.000000D+00  E= 2.224351D+00

 Vector   70  Occ=0.000000D+00  E= 2.308122D+00

 Vector   71  Occ=0.000000D+00  E= 2.310127D+00

 Vector   72  Occ=0.000000D+00  E= 2.356585D+00

 Vector   73  Occ=0.000000D+00  E= 2.422591D+00

 Vector   74  Occ=0.000000D+00  E= 2.652153D+00

 Vector   75  Occ=0.000000D+00  E= 2.653018D+00

 Vector   76  Occ=0.000000D+00  E= 2.655930D+00

 Vector   77  Occ=0.000000D+00  E= 2.655949D+00

 Vector   78  Occ=0.000000D+00  E= 2.890170D+00

 Vector   79  Occ=0.000000D+00  E= 2.891394D+00

 Vector   80  Occ=0.000000D+00  E= 2.940832D+00

 Vector   81  Occ=0.000000D+00  E= 3.062535D+00

 Vector   82  Occ=0.000000D+00  E= 3.062636D+00

 Vector   83  Occ=0.000000D+00  E= 3.082838D+00

 Vector   84  Occ=0.000000D+00  E= 3.083864D+00

 Vector   85  Occ=0.000000D+00  E= 3.102256D+00

 Vector   86  Occ=0.000000D+00  E= 3.283878D+00

 Vector   87  Occ=0.000000D+00  E= 3.290855D+00

 Vector   88  Occ=0.000000D+00  E= 3.455348D+00

 Vector   89  Occ=0.000000D+00  E= 3.669241D+00

 Vector   90  Occ=0.000000D+00  E= 3.670745D+00

 Vector   91  Occ=0.000000D+00  E= 3.735670D+00

 Vector   92  Occ=0.000000D+00  E= 3.999755D+00

 Vector   93  Occ=0.000000D+00  E= 4.001240D+00

 Vector   94  Occ=0.000000D+00  E= 4.138516D+00

 Vector   95  Occ=0.000000D+00  E= 4.401858D+00

 Vector   96  Occ=0.000000D+00  E= 4.403090D+00

 Vector   97  Occ=0.000000D+00  E= 4.409533D+00

 Vector   98  Occ=0.000000D+00  E= 4.706227D+00

 Vector   99  Occ=0.000000D+00  E= 4.721574D+00

 Vector  100  Occ=0.000000D+00  E= 4.748000D+00

 Vector  101  Occ=0.000000D+00  E= 4.756264D+00

 Vector  102  Occ=0.000000D+00  E= 4.991726D+00

 Vector  103  Occ=0.000000D+00  E= 5.147415D+00

 Vector  104  Occ=0.000000D+00  E= 5.147498D+00

 Vector  105  Occ=0.000000D+00  E= 5.171174D+00

 Vector  106  Occ=0.000000D+00  E= 5.182688D+00

 Vector  107  Occ=0.000000D+00  E= 5.227275D+00

 Vector  108  Occ=0.000000D+00  E= 5.424035D+00

 Vector  109  Occ=0.000000D+00  E= 5.521989D+00

 Vector  110  Occ=0.000000D+00  E= 5.525809D+00

 Vector  111  Occ=0.000000D+00  E= 5.638563D+00

 Vector  112  Occ=0.000000D+00  E= 5.639495D+00

 Vector  113  Occ=0.000000D+00  E= 5.964744D+00

 Vector  114  Occ=0.000000D+00  E= 5.969586D+00

 Vector  115  Occ=0.000000D+00  E= 6.243986D+00

 Vector  116  Occ=0.000000D+00  E= 6.437588D+00

 Vector  117  Occ=0.000000D+00  E= 6.439317D+00

 Vector  118  Occ=0.000000D+00  E= 6.661100D+00

 Vector  119  Occ=0.000000D+00  E= 6.924779D+00

 Vector  120  Occ=0.000000D+00  E= 6.928372D+00

 Vector  121  Occ=0.000000D+00  E= 6.946529D+00

 Vector  122  Occ=0.000000D+00  E= 7.245804D+00

 Vector  123  Occ=0.000000D+00  E= 7.246436D+00

 Vector  124  Occ=0.000000D+00  E= 7.359000D+00

 Vector  125  Occ=0.000000D+00  E= 8.458738D+00

 Vector  126  Occ=0.000000D+00  E= 8.778309D+00

 Vector  127  Occ=0.000000D+00  E= 9.408570D+00

 Vector  128  Occ=0.000000D+00  E= 1.212337D+01

 Vector  129  Occ=0.000000D+00  E= 1.680965D+01

 Vector  130  Occ=0.000000D+00  E= 3.483073D+01

 Vector  131  Occ=0.000000D+00  E= 5.166868D+01

 Vector  132  Occ=0.000000D+00  E= 7.179746D+01

     Multipole analysis of the density
     ---------------------------------

     L   x y z        total         alpha         beta         nuclear
     -   - - -        -----         -----         ----         -------
     0   0 0 0     -0.000000    -11.000000    -10.000000     21.000000

     1   1 0 0     -0.000000     -0.000000     -0.000000      0.000000
     1   0 1 0     -0.000000     -0.000000     -0.000000      0.000000
     1   0 0 1      0.273820      0.651545     -0.377725      0.000000

     2   2 0 0    -10.941379     -6.147450     -4.793929      0.000000
     2   1 1 0      0.190240     -0.004192      0.194431      0.000000
     2   1 0 1     -0.000000     -0.000000     -0.000000      0.000000
     2   0 2 0    -11.871771     -6.126949     -5.744822      0.000000
     2   0 1 1     -0.000000     -0.000000     -0.000000      0.000000

  Root   1         a              0.010030266 a.u.                0.2729 eV
     Dipole Oscillator Strength                    0.0000000000
  Root   2         a              0.116166731 a.u.                3.1611 eV
     Dipole Oscillator Strength                    0.0050660891
  Root   3         a              0.198217933 a.u.                5.3938 eV
     Dipole Oscillator Strength                    0.0000000000
  Root   4         a              0.201439270 a.u.                5.4814 eV
     Dipole Oscillator Strength                    0.0284322352
  Root   5         a              0.247042450 a.u.                6.7224 eV
     Dipole Oscillator Strength                    0.0002161427
  Root   6         a              0.262693318 a.u.                7.1483 eV
     Dipole Oscillator Strength                    0.0000000000
  Root   7         a              0.276158532 a.u.                7.5147 eV
     Dipole Oscillator Strength                    0.0017691532
  Root   8         a              0.276716646 a.u.                7.5298 eV
     Dipole Oscillator Strength                    0.0029030967
  Root   9         a              0.292836812 a.u.                7.9685 eV
     Dipole Oscillator Strength                    0.0091621755
  Root  10         a              0.298878879 a.u.                8.1329 eV
     Dipole Oscillator Strength                    0.0007856724
 Total times  cpu:      227.8s     wall:      261.9s
