 Output coordinates in angstroms (scale by  1.889725989 to convert to a.u.)

  No.       Tag          Charge          X              Y              Z
 ---- ---------------- ---------- -------------- -------------- --------------
    1 N                    7.0000     0.00000000     0.00000000     0.07473311
    2 H                    1.0000    -0.42445300     0.00000000    -0.26156589
    3 H                    1.0000     0.42445300     0.00000000    -0.26156589

         Total DFT energy =      -54.605464808562

                    DFT Final Alpha Molecular Orbital Analysis
                    ------------------------------------------

 Vector    1  Occ=1.000000D+00  E=-1.416145D+01

 Vector   43  Occ=0.000000D+00  E= 4.140794D+00

 Vector   44  Occ=0.000000D+00  E= 4.410478D+00

 Vector   45  Occ=0.000000D+00  E= 4.433349D+00

 Vector   46  Occ=0.000000D+00  E= 4.509828D+00

 Vector   47  Occ=0.000000D+00  E= 4.536097D+00

 Vector   48  Occ=0.000000D+00  E= 4.636358D+00

 Vector   49  Occ=0.000000D+00  E= 4.705343D+00

 Vector   50  Occ=0.000000D+00  E= 4.850453D+00

 Vector   51  Occ=0.000000D+00  E= 4.917985D+00

 Vector   52  Occ=0.000000D+00  E= 4.922434D+00

 Vector   53  Occ=0.000000D+00  E= 5.027127D+00

 Vector   54  Occ=0.000000D+00  E= 5.213831D+00

 Vector   55  Occ=0.000000D+00  E= 5.262841D+00

 Vector   56  Occ=0.000000D+00  E= 5.316614D+00

 Vector   57  Occ=0.000000D+00  E= 5.538909D+00

 Vector   58  Occ=0.000000D+00  E= 9.820538D+00

 Vector   59  Occ=0.000000D+00  E= 1.026617D+01

 Vector   60  Occ=0.000000D+00  E= 1.206229D+01

 Vector   61  Occ=0.000000D+00  E= 5.166913D+01

 Vector    1  Occ=1.000000D+00  E=-1.414348D+01

 Vector    2  Occ=1.000000D+00  E=-1.166589D+00

 Vector    3  Occ=1.000000D+00  E=-7.518220D-01

 Vector    4  Occ=1.000000D+00  E=-4.447613D-01

 Vector    5  Occ=0.000000D+00  E=-3.464902D-02

 Vector    6  Occ=0.000000D+00  E= 7.476564D-02

 Vector    7  Occ=0.000000D+00  E= 1.535139D-01

 Vector    8  Occ=0.000000D+00  E= 1.772572D-01

 Vector    9  Occ=0.000000D+00  E= 2.109542D-01

 Vector   10  Occ=0.000000D+00  E= 2.522898D-01

 Vector   11  Occ=0.000000D+00  E= 2.569299D-01

 Vector   12  Occ=0.000000D+00  E= 2.580048D-01

 Vector   13  Occ=0.000000D+00  E= 2.832339D-01

 Vector   14  Occ=0.000000D+00  E= 3.796116D-01

 Vector   15  Occ=0.000000D+00  E= 3.982159D-01

 Vector   16  Occ=0.000000D+00  E= 4.110198D-01

 Vector   17  Occ=0.000000D+00  E= 5.066871D-01

 Vector   18  Occ=0.000000D+00  E= 5.311897D-01

 Vector   19  Occ=0.000000D+00  E= 5.834788D-01

 Vector   20  Occ=0.000000D+00  E= 5.875433D-01

 Vector   21  Occ=0.000000D+00  E= 7.112457D-01

 Vector   22  Occ=0.000000D+00  E= 7.349305D-01

 Vector   23  Occ=0.000000D+00  E= 7.351737D-01

 Vector   24  Occ=0.000000D+00  E= 1.015858D+00

 Vector   25  Occ=0.000000D+00  E= 1.052436D+00

 Vector   26  Occ=0.000000D+00  E= 1.054452D+00

 Vector   27  Occ=0.000000D+00  E= 1.356916D+00

 Vector   28  Occ=0.000000D+00  E= 1.427910D+00

 Vector   29  Occ=0.000000D+00  E= 1.444228D+00

 Vector   30  Occ=0.000000D+00  E= 1.664678D+00

 Vector   31  Occ=0.000000D+00  E= 1.681694D+00

 Vector   32  Occ=0.000000D+00  E= 1.993359D+00

 Vector   33  Occ=0.000000D+00  E= 2.087636D+00

 Vector   34  Occ=0.000000D+00  E= 2.261578D+00

 Vector   35  Occ=0.000000D+00  E= 2.311449D+00

 Vector   36  Occ=0.000000D+00  E= 2.419942D+00

 Vector   37  Occ=0.000000D+00  E= 2.519014D+00

 Vector   38  Occ=0.000000D+00  E= 2.587376D+00

 Vector   39  Occ=0.000000D+00  E= 2.648073D+00

 Vector   40  Occ=0.000000D+00  E= 2.804440D+00

 Vector   41  Occ=0.000000D+00  E= 2.921249D+00

 Vector   42  Occ=0.000000D+00  E= 3.927569D+00

 Vector   43  Occ=0.000000D+00  E= 4.203315D+00

 Vector   44  Occ=0.000000D+00  E= 4.421829D+00

 Vector   45  Occ=0.000000D+00  E= 4.520917D+00

 Vector   46  Occ=0.000000D+00  E= 4.579104D+00

 Vector   47  Occ=0.000000D+00  E= 4.602755D+00

 Vector   48  Occ=0.000000D+00  E= 4.740680D+00

 Vector   49  Occ=0.000000D+00  E= 4.755390D+00

 Vector   50  Occ=0.000000D+00  E= 4.904066D+00

 Vector   51  Occ=0.000000D+00  E= 4.941961D+00

 Vector   52  Occ=0.000000D+00  E= 4.950682D+00

 Vector   53  Occ=0.000000D+00  E= 5.067916D+00

 Vector   54  Occ=0.000000D+00  E= 5.277767D+00

 Vector   55  Occ=0.000000D+00  E= 5.287290D+00

 Vector   56  Occ=0.000000D+00  E= 5.372769D+00

 Vector   57  Occ=0.000000D+00  E= 5.549990D+00

 Vector   58  Occ=0.000000D+00  E= 9.848075D+00

 Vector   59  Occ=0.000000D+00  E= 1.028003D+01

 Vector   60  Occ=0.000000D+00  E= 1.211384D+01

 Vector   61  Occ=0.000000D+00  E= 5.169805D+01

     Multipole analysis of the density
     ---------------------------------

     L   x y z        total         alpha         beta         nuclear
     -   - - -        -----         -----         ----         -------
     0   0 0 0     -0.000000     -5.000000     -4.000000      9.000000

     1   1 0 0      0.000000      0.000000      0.000000      0.000000
     1   0 1 0      0.000000      0.000000     -0.000000      0.000000
     1   0 0 1     -0.758315     -0.387366     -0.370949      0.000000

     2   2 0 0     -4.220110     -2.976721     -2.530117      1.286728
     2   1 1 0      0.000000      0.000000     -0.000000      0.000000
     2   1 0 1      0.000000      0.000000      0.000000      0.000000
     2   0 2 0     -4.510830     -3.057816     -1.453014      0.000000
     2   0 1 1     -0.000000      0.000000     -0.000000      0.000000

  Root   1         a              0.077569097 a.u.                2.1108 eV
     Dipole Oscillator Strength                    0.0067599209
  Root   2         a              0.317769918 a.u.                8.6470 eV
     Dipole Oscillator Strength                    0.0112215656
  Root   3         a              0.337566352 a.u.                9.1857 eV
     Dipole Oscillator Strength                    0.0448563812
  Root   4         a              0.343735905 a.u.                9.3535 eV
     Dipole Oscillator Strength                    0.0216913948
  Root   5         a              0.367013220 a.u.                9.9869 eV
     Dipole Oscillator Strength                    0.0000000000
  Root   6         a              0.393305473 a.u.               10.7024 eV
     Dipole Oscillator Strength                    0.0162858674
  Root   7         a              0.410598098 a.u.               11.1729 eV
     Dipole Oscillator Strength                    0.0047220598
  Root   8         a              0.420791960 a.u.               11.4503 eV
     Dipole Oscillator Strength                    0.0000000000
  Root   9         a              0.421623212 a.u.               11.4730 eV
     Dipole Oscillator Strength                    0.0209716894
  Root  10         a              0.432651226 a.u.               11.7730 eV
     Dipole Oscillator Strength                    0.0012858565
 Total times  cpu:       74.7s     wall:       86.6s
