 Output coordinates in angstroms (scale by  1.889725989 to convert to a.u.)

  No.       Tag          Charge          X              Y              Z
 ---- ---------------- ---------- -------------- -------------- --------------
    1 N                    7.0000     0.00000000     0.00000000    -0.61280907
    2 O                    8.0000     0.00000000     0.00000000     0.53620793

         Total DFT energy =     -129.852774243578

                    DFT Final Alpha Molecular Orbital Analysis
                    ------------------------------------------

 Vector    1  Occ=1.000000D+00  E=-1.909706D+01

 Vector   10  Occ=0.000000D+00  E= 8.540877D-02

 Vector   11  Occ=0.000000D+00  E= 1.112763D-01

 Vector   12  Occ=0.000000D+00  E= 1.169676D-01

 Vector   13  Occ=0.000000D+00  E= 1.215631D-01

 Vector   14  Occ=0.000000D+00  E= 1.749422D-01

 Vector   15  Occ=0.000000D+00  E= 3.663628D-01

 Vector   16  Occ=0.000000D+00  E= 3.677658D-01

 Vector   17  Occ=0.000000D+00  E= 3.823899D-01

 Vector   18  Occ=0.000000D+00  E= 3.920269D-01

 Vector   19  Occ=0.000000D+00  E= 4.007876D-01

 Vector   20  Occ=0.000000D+00  E= 4.025160D-01

 Vector   21  Occ=0.000000D+00  E= 4.197674D-01

 Vector   22  Occ=0.000000D+00  E= 5.010209D-01

 Vector   23  Occ=0.000000D+00  E= 5.033527D-01

 Vector   24  Occ=0.000000D+00  E= 5.137574D-01

 Vector   25  Occ=0.000000D+00  E= 5.545115D-01

 Vector   26  Occ=0.000000D+00  E= 5.547802D-01

 Vector   27  Occ=0.000000D+00  E= 5.570110D-01

 Vector   28  Occ=0.000000D+00  E= 5.680909D-01

 Vector   29  Occ=0.000000D+00  E= 6.169732D-01

 Vector   30  Occ=0.000000D+00  E= 8.462028D-01

 Vector   31  Occ=0.000000D+00  E= 9.233218D-01

 Vector   32  Occ=0.000000D+00  E= 9.374674D-01

 Vector   33  Occ=0.000000D+00  E= 9.787497D-01

 Vector   34  Occ=0.000000D+00  E= 1.083409D+00

 Vector   35  Occ=0.000000D+00  E= 1.201605D+00

 Vector   36  Occ=0.000000D+00  E= 1.290590D+00

 Vector   37  Occ=0.000000D+00  E= 1.290615D+00

 Vector   38  Occ=0.000000D+00  E= 1.405118D+00

 Vector   39  Occ=0.000000D+00  E= 1.431777D+00

 Vector   40  Occ=0.000000D+00  E= 1.658044D+00

 Vector   41  Occ=0.000000D+00  E= 1.729414D+00

 Vector   42  Occ=0.000000D+00  E= 1.761224D+00

 Vector   43  Occ=0.000000D+00  E= 1.835571D+00

 Vector   44  Occ=0.000000D+00  E= 1.835605D+00

 Vector   45  Occ=0.000000D+00  E= 2.100864D+00

 Vector   46  Occ=0.000000D+00  E= 2.123362D+00

 Vector   47  Occ=0.000000D+00  E= 2.226363D+00

 Vector   48  Occ=0.000000D+00  E= 2.380423D+00

 Vector   49  Occ=0.000000D+00  E= 2.466205D+00

 Vector   50  Occ=0.000000D+00  E= 2.550962D+00

 Vector   51  Occ=0.000000D+00  E= 2.576677D+00

 Vector   52  Occ=0.000000D+00  E= 2.847337D+00

 Vector   53  Occ=0.000000D+00  E= 3.443632D+00

 Vector   54  Occ=0.000000D+00  E= 3.880856D+00

 Vector   55  Occ=0.000000D+00  E= 3.880982D+00

 Vector   56  Occ=0.000000D+00  E= 3.913087D+00

 Vector   57  Occ=0.000000D+00  E= 3.913178D+00

 Vector   58  Occ=0.000000D+00  E= 4.188232D+00

 Vector   59  Occ=0.000000D+00  E= 4.218121D+00

 Vector   60  Occ=0.000000D+00  E= 4.350594D+00

 Vector   61  Occ=0.000000D+00  E= 4.485684D+00

 Vector   62  Occ=0.000000D+00  E= 4.529359D+00

 Vector   63  Occ=0.000000D+00  E= 4.661625D+00

 Vector   64  Occ=0.000000D+00  E= 4.662050D+00

 Vector   65  Occ=0.000000D+00  E= 4.868226D+00

 Vector   66  Occ=0.000000D+00  E= 4.908696D+00

 Vector   67  Occ=0.000000D+00  E= 4.939128D+00

 Vector   68  Occ=0.000000D+00  E= 5.007815D+00

 Vector   69  Occ=0.000000D+00  E= 5.152502D+00

 Vector   70  Occ=0.000000D+00  E= 5.152521D+00

 Vector   71  Occ=0.000000D+00  E= 5.475567D+00

 Vector   72  Occ=0.000000D+00  E= 5.645254D+00

 Vector   73  Occ=0.000000D+00  E= 5.645382D+00

 Vector   74  Occ=0.000000D+00  E= 5.925514D+00

 Vector   75  Occ=0.000000D+00  E= 5.956333D+00

 Vector   76  Occ=0.000000D+00  E= 6.319721D+00

 Vector   77  Occ=0.000000D+00  E= 6.399504D+00

 Vector   78  Occ=0.000000D+00  E= 6.399619D+00

 Vector   79  Occ=0.000000D+00  E= 6.559955D+00

 Vector   80  Occ=0.000000D+00  E= 6.590950D+00

 Vector   81  Occ=0.000000D+00  E= 6.634255D+00

 Vector   82  Occ=0.000000D+00  E= 7.015008D+00

 Vector   83  Occ=0.000000D+00  E= 7.045846D+00

 Vector   84  Occ=0.000000D+00  E= 7.819201D+00

 Vector   85  Occ=0.000000D+00  E= 8.456013D+00

 Vector   86  Occ=0.000000D+00  E= 1.205779D+01

 Vector   87  Occ=0.000000D+00  E= 1.667577D+01

 Vector   88  Occ=0.000000D+00  E= 5.158811D+01

 Vector   89  Occ=0.000000D+00  E= 7.167787D+01

     Multipole analysis of the density
     ---------------------------------

     L   x y z        total         alpha         beta         nuclear
     -   - - -        -----         -----         ----         -------
     0   0 0 0     -0.000000     -8.000000     -7.000000     15.000000

     1   1 0 0      0.000000      0.000000      0.000000      0.000000
     1   0 1 0      0.000000      0.000000      0.000000      0.000000
     1   0 0 1      0.055976      0.281446     -0.225470      0.000000

     2   2 0 0     -7.867682     -4.495115     -3.372568      0.000000
     2   1 1 0      0.327951      0.347407     -0.019456      0.000000
     2   1 0 1      0.000000     -0.000000      0.000000      0.000000
     2   0 2 0     -7.338035     -3.934046     -3.403990      0.000000
     2   0 1 1      0.000000      0.000000      0.000000      0.000000

  Root   1         a              0.004988637 a.u.                0.1357 eV
     Dipole Oscillator Strength                    0.0000000000
  Root   2         a              0.223235406 a.u.                6.0745 eV
     Dipole Oscillator Strength                    0.0021826753
  Root   3         a              0.243955013 a.u.                6.6384 eV
     Dipole Oscillator Strength                    0.0001799823
  Root   4         a              0.253215113 a.u.                6.8903 eV
     Dipole Oscillator Strength                    0.0015283571
  Root   5         a              0.262364587 a.u.                7.1393 eV
     Dipole Oscillator Strength                    0.0000000000
  Root   6         a              0.265326259 a.u.                7.2199 eV
     Dipole Oscillator Strength                    0.0192045484
  Root   7         a              0.266705202 a.u.                7.2574 eV
     Dipole Oscillator Strength                    0.0145513756
  Root   8         a              0.268557738 a.u.                7.3078 eV
     Dipole Oscillator Strength                    0.0000000000
  Root   9         a              0.315683435 a.u.                8.5902 eV
     Dipole Oscillator Strength                    0.0006426371
  Root  10         a              0.319741335 a.u.                8.7006 eV
     Dipole Oscillator Strength                    0.0020351684
 Total times  cpu:       89.4s     wall:      105.5s
