 Output coordinates in angstroms (scale by  1.889725989 to convert to a.u.)

  No.       Tag          Charge          X              Y              Z
 ---- ---------------- ---------- -------------- -------------- --------------
    1 O                    8.0000     0.00000000     0.00000000    -0.20366278
    2 H                    1.0000     0.00000000     0.00000000     1.62930222

         Total DFT energy =      -75.550386483839

                    DFT Final Alpha Molecular Orbital Analysis
                    ------------------------------------------

 Vector    1  Occ=1.000000D+00  E=-1.905017D+01

 Vector   31  Occ=0.000000D+00  E= 1.836518D+00

 Vector   32  Occ=0.000000D+00  E= 2.004660D+00

 Vector   33  Occ=0.000000D+00  E= 2.180383D+00

 Vector   34  Occ=0.000000D+00  E= 2.229145D+00

 Vector   35  Occ=0.000000D+00  E= 2.266154D+00

 Vector   36  Occ=0.000000D+00  E= 2.638099D+00

 Vector   37  Occ=0.000000D+00  E= 2.851979D+00

 Vector   38  Occ=0.000000D+00  E= 5.132843D+00

 Vector   39  Occ=0.000000D+00  E= 5.150671D+00

 Vector   40  Occ=0.000000D+00  E= 5.152412D+00

 Vector   41  Occ=0.000000D+00  E= 5.165088D+00

 Vector   42  Occ=0.000000D+00  E= 5.170606D+00

 Vector   43  Occ=0.000000D+00  E= 5.206128D+00

 Vector   44  Occ=0.000000D+00  E= 5.250997D+00

 Vector   45  Occ=0.000000D+00  E= 5.725502D+00

 Vector   46  Occ=0.000000D+00  E= 5.793440D+00

 Vector   47  Occ=0.000000D+00  E= 5.916065D+00

 Vector   48  Occ=0.000000D+00  E= 6.327856D+00

 Vector   49  Occ=0.000000D+00  E= 6.338669D+00

 Vector   50  Occ=0.000000D+00  E= 6.346287D+00

 Vector   51  Occ=0.000000D+00  E= 6.412493D+00

 Vector   52  Occ=0.000000D+00  E= 6.468086D+00

 Vector   53  Occ=0.000000D+00  E= 6.636859D+00

 Vector   54  Occ=0.000000D+00  E= 1.660602D+01

 Vector   55  Occ=0.000000D+00  E= 7.158728D+01

 Vector    1  Occ=1.000000D+00  E=-1.903104D+01

 Vector    2  Occ=1.000000D+00  E=-9.883938D-01

 Vector    3  Occ=1.000000D+00  E=-4.728992D-01

 Vector    4  Occ=1.000000D+00  E=-4.232497D-01

 Vector    5  Occ=0.000000D+00  E=-6.981412D-02

 Vector    6  Occ=0.000000D+00  E=-5.076335D-02

 Vector    7  Occ=0.000000D+00  E= 1.174406D-01

 Vector    8  Occ=0.000000D+00  E= 1.374158D-01

 Vector    9  Occ=0.000000D+00  E= 1.418006D-01

 Vector   10  Occ=0.000000D+00  E= 1.437247D-01

 Vector   11  Occ=0.000000D+00  E= 2.266690D-01

 Vector   12  Occ=0.000000D+00  E= 2.281422D-01

 Vector   13  Occ=0.000000D+00  E= 2.343924D-01

 Vector   14  Occ=0.000000D+00  E= 4.386984D-01

 Vector   15  Occ=0.000000D+00  E= 4.734662D-01

 Vector   16  Occ=0.000000D+00  E= 4.743717D-01

 Vector   17  Occ=0.000000D+00  E= 5.249590D-01

 Vector   18  Occ=0.000000D+00  E= 5.434919D-01

 Vector   19  Occ=0.000000D+00  E= 5.435829D-01

 Vector   20  Occ=0.000000D+00  E= 5.784157D-01

 Vector   21  Occ=0.000000D+00  E= 6.625499D-01

 Vector   22  Occ=0.000000D+00  E= 6.718098D-01

 Vector   23  Occ=0.000000D+00  E= 8.069438D-01

 Vector   24  Occ=0.000000D+00  E= 1.156624D+00

 Vector   25  Occ=0.000000D+00  E= 1.643892D+00

 Vector   26  Occ=0.000000D+00  E= 1.645102D+00

 Vector   27  Occ=0.000000D+00  E= 1.690534D+00

 Vector   28  Occ=0.000000D+00  E= 1.826051D+00

 Vector   29  Occ=0.000000D+00  E= 1.835457D+00

 Vector   30  Occ=0.000000D+00  E= 1.836277D+00

 Vector   31  Occ=0.000000D+00  E= 1.844020D+00

 Vector   32  Occ=0.000000D+00  E= 2.030253D+00

 Vector   33  Occ=0.000000D+00  E= 2.241880D+00

 Vector   34  Occ=0.000000D+00  E= 2.260397D+00

 Vector   35  Occ=0.000000D+00  E= 2.277220D+00

 Vector   36  Occ=0.000000D+00  E= 2.667282D+00

 Vector   37  Occ=0.000000D+00  E= 2.880500D+00

 Vector   38  Occ=0.000000D+00  E= 5.195175D+00

 Vector   39  Occ=0.000000D+00  E= 5.201473D+00

 Vector   40  Occ=0.000000D+00  E= 5.208228D+00

 Vector   41  Occ=0.000000D+00  E= 5.215248D+00

 Vector   42  Occ=0.000000D+00  E= 5.240418D+00

 Vector   43  Occ=0.000000D+00  E= 5.246518D+00

 Vector   44  Occ=0.000000D+00  E= 5.257922D+00

 Vector   45  Occ=0.000000D+00  E= 5.810991D+00

 Vector   46  Occ=0.000000D+00  E= 5.836086D+00

 Vector   47  Occ=0.000000D+00  E= 5.920559D+00

 Vector   48  Occ=0.000000D+00  E= 6.411430D+00

 Vector   49  Occ=0.000000D+00  E= 6.433719D+00

 Vector   50  Occ=0.000000D+00  E= 6.434404D+00

 Vector   51  Occ=0.000000D+00  E= 6.443289D+00

 Vector   52  Occ=0.000000D+00  E= 6.495302D+00

 Vector   53  Occ=0.000000D+00  E= 6.677623D+00

 Vector   54  Occ=0.000000D+00  E= 1.665532D+01

 Vector   55  Occ=0.000000D+00  E= 7.161788D+01

     Multipole analysis of the density
     ---------------------------------

     L   x y z        total         alpha         beta         nuclear
     -   - - -        -----         -----         ----         -------
     0   0 0 0     -0.000000     -5.000000     -4.000000      9.000000

     1   1 0 0      0.000000     -0.000000      0.000000      0.000000
     1   0 1 0      0.000000     -0.000000      0.000000      0.000000
     1   0 0 1      0.868861      0.310116      0.558745      0.000000

     2   2 0 0     -4.629789     -2.981273     -1.648516      0.000000
     2   1 1 0      0.043226      0.001833      0.041393      0.000000
     2   1 0 1      0.000000     -0.000000      0.000000      0.000000
     2   0 2 0     -5.644358     -3.024292     -2.620066      0.000000
     2   0 1 1     -0.000000     -0.000000      0.000000      0.000000

  Root   1         a              0.015484055 a.u.                0.4213 eV
     Dipole Oscillator Strength                    0.0000000000
  Root   2         a              0.048805876 a.u.                1.3281 eV
     Dipole Oscillator Strength                    0.0005910419
  Root   3         a              0.053580726 a.u.                1.4580 eV
     Dipole Oscillator Strength                    0.0000218350
  Root   4         a              0.084948931 a.u.                2.3116 eV
     Dipole Oscillator Strength                    0.0000849434
  Root   5         a              0.093009271 a.u.                2.5309 eV
     Dipole Oscillator Strength                    0.0008872038
  Root   6         a              0.147526780 a.u.                4.0144 eV
     Dipole Oscillator Strength                    0.0003989131
  Root   7         a              0.294235837 a.u.                8.0066 eV
     Dipole Oscillator Strength                    0.6904701643
  Root   8         a              0.330616755 a.u.                8.9965 eV
     Dipole Oscillator Strength                    0.0191296644
  Root   9         a              0.349802496 a.u.                9.5186 eV
     Dipole Oscillator Strength                    0.0566411895
  Root  10         a              0.356585966 a.u.                9.7032 eV
     Dipole Oscillator Strength                    0.0159498700
 Total times  cpu:       53.5s     wall:       62.0s
