 Output coordinates in angstroms (scale by  1.889725989 to convert to a.u.)

  No.       Tag          Charge          X              Y              Z
 ---- ---------------- ---------- -------------- -------------- --------------
    1 Al                  13.0000     0.00000000     0.00000000     0.00000000

         Total DFT energy =     -242.212867208270
         Total DFT energy =     -242.239704543529
         Total DFT energy =     -242.243232871411
         Total DFT energy =     -242.244000594280
         Total DFT energy =     -242.244060156717
         Total DFT energy =     -242.244062028979
         Total DFT energy =     -242.244062175647
         Total DFT energy =     -242.244062175647

                    DFT Final Alpha Molecular Orbital Analysis
                    ------------------------------------------

 Vector    1  Occ=1.000000D+00  E=-5.557645D+01

 Vector   39  Occ=0.000000D+00  E= 8.460101D-01

 Vector   40  Occ=0.000000D+00  E= 8.460101D-01

 Vector   41  Occ=0.000000D+00  E= 8.482638D-01

 Vector   42  Occ=0.000000D+00  E= 8.482638D-01

 Vector   43  Occ=0.000000D+00  E= 8.490558D-01

 Vector   44  Occ=0.000000D+00  E= 8.624365D-01

 Vector   45  Occ=0.000000D+00  E= 9.610764D-01

 Vector   46  Occ=0.000000D+00  E= 9.610765D-01

 Vector   47  Occ=0.000000D+00  E= 9.649653D-01

 Vector   48  Occ=0.000000D+00  E= 9.651293D-01

 Vector   49  Occ=0.000000D+00  E= 9.651293D-01

 Vector   50  Occ=0.000000D+00  E= 9.661916D-01

 Vector   51  Occ=0.000000D+00  E= 9.661916D-01

 Vector   52  Occ=0.000000D+00  E= 1.111627D+00

 Vector   53  Occ=0.000000D+00  E= 1.113201D+00

 Vector   54  Occ=0.000000D+00  E= 1.113201D+00

 Vector   55  Occ=0.000000D+00  E= 1.826051D+00

 Vector   56  Occ=0.000000D+00  E= 2.972670D+00

 Vector   57  Occ=0.000000D+00  E= 3.457843D+00

 Vector   58  Occ=0.000000D+00  E= 3.457843D+00

 Vector   59  Occ=0.000000D+00  E= 3.464706D+00

 Vector    1  Occ=1.000000D+00  E=-5.557481D+01

 Vector    2  Occ=1.000000D+00  E=-4.112407D+00

 Vector    3  Occ=1.000000D+00  E=-2.714028D+00

 Vector    4  Occ=1.000000D+00  E=-2.714028D+00

 Vector    5  Occ=1.000000D+00  E=-2.703547D+00

 Vector    6  Occ=1.000000D+00  E=-3.767448D-01

 Vector    7  Occ=0.000000D+00  E=-5.917431D-03

 Vector    8  Occ=0.000000D+00  E=-5.917426D-03

 Vector    9  Occ=0.000000D+00  E= 1.605060D-02

 Vector   10  Occ=0.000000D+00  E= 2.492692D-02

 Vector   11  Occ=0.000000D+00  E= 4.646272D-02

 Vector   12  Occ=0.000000D+00  E= 4.646278D-02

 Vector   13  Occ=0.000000D+00  E= 5.826265D-02

 Vector   14  Occ=0.000000D+00  E= 1.022809D-01

 Vector   15  Occ=0.000000D+00  E= 1.022809D-01

 Vector   16  Occ=0.000000D+00  E= 1.060801D-01

 Vector   17  Occ=0.000000D+00  E= 1.091090D-01

 Vector   18  Occ=0.000000D+00  E= 1.091090D-01

 Vector   19  Occ=0.000000D+00  E= 1.145195D-01

 Vector   20  Occ=0.000000D+00  E= 2.442976D-01

 Vector   21  Occ=0.000000D+00  E= 2.442977D-01

 Vector   22  Occ=0.000000D+00  E= 2.612651D-01

 Vector   23  Occ=0.000000D+00  E= 2.965157D-01

 Vector   24  Occ=0.000000D+00  E= 2.965157D-01

 Vector   25  Occ=0.000000D+00  E= 3.153154D-01

 Vector   26  Occ=0.000000D+00  E= 3.153154D-01

 Vector   27  Occ=0.000000D+00  E= 3.225617D-01

 Vector   28  Occ=0.000000D+00  E= 3.300883D-01

 Vector   29  Occ=0.000000D+00  E= 3.300884D-01

 Vector   30  Occ=0.000000D+00  E= 3.378420D-01

 Vector   31  Occ=0.000000D+00  E= 3.378420D-01

 Vector   32  Occ=0.000000D+00  E= 3.429213D-01

 Vector   33  Occ=0.000000D+00  E= 3.429213D-01

 Vector   34  Occ=0.000000D+00  E= 3.446234D-01

 Vector   35  Occ=0.000000D+00  E= 3.869460D-01

 Vector   36  Occ=0.000000D+00  E= 4.313432D-01

 Vector   37  Occ=0.000000D+00  E= 4.313432D-01

 Vector   38  Occ=0.000000D+00  E= 4.423336D-01

 Vector   39  Occ=0.000000D+00  E= 8.481085D-01

 Vector   40  Occ=0.000000D+00  E= 8.481085D-01

 Vector   41  Occ=0.000000D+00  E= 8.650419D-01

 Vector   42  Occ=0.000000D+00  E= 8.700261D-01

 Vector   43  Occ=0.000000D+00  E= 8.700261D-01

 Vector   44  Occ=0.000000D+00  E= 8.788370D-01

 Vector   45  Occ=0.000000D+00  E= 9.656338D-01

 Vector   46  Occ=0.000000D+00  E= 9.656338D-01

 Vector   47  Occ=0.000000D+00  E= 9.858613D-01

 Vector   48  Occ=0.000000D+00  E= 9.858613D-01

 Vector   49  Occ=0.000000D+00  E= 9.983887D-01

 Vector   50  Occ=0.000000D+00  E= 9.983887D-01

 Vector   51  Occ=0.000000D+00  E= 1.002382D+00

 Vector   52  Occ=0.000000D+00  E= 1.119023D+00

 Vector   53  Occ=0.000000D+00  E= 1.119023D+00

 Vector   54  Occ=0.000000D+00  E= 1.145079D+00

 Vector   55  Occ=0.000000D+00  E= 1.834717D+00

 Vector   56  Occ=0.000000D+00  E= 2.986133D+00

 Vector   57  Occ=0.000000D+00  E= 3.460710D+00

 Vector   58  Occ=0.000000D+00  E= 3.460710D+00

 Vector   59  Occ=0.000000D+00  E= 3.485067D+00

  Root   1         a              0.000069376 a.u.                0.0019 eV
     Dipole Oscillator Strength                    0.0000000000
  Root   2         a              0.000069396 a.u.                0.0019 eV
     Dipole Oscillator Strength                    0.0000000000
  Root   3         a              0.117207085 a.u.                3.1894 eV
     Dipole Oscillator Strength                    0.1345362742
  Root   4         a              0.148823624 a.u.                4.0497 eV
     Dipole Oscillator Strength                    0.0000000000
  Root   5         a              0.150463250 a.u.                4.0943 eV
     Dipole Oscillator Strength                    0.0000000000
 Total times  cpu:       20.2s     wall:       24.9s
