 Output coordinates in angstroms (scale by  1.889725989 to convert to a.u.)

  No.       Tag          Charge          X              Y              Z
 ---- ---------------- ---------- -------------- -------------- --------------
    1 As                  33.0000     0.00000000     0.00000000     0.00000000

         Total DFT energy =    -2235.509972576334
         Total DFT energy =    -2235.539555672041
         Total DFT energy =    -2235.540414820811
         Total DFT energy =    -2235.540672855740
         Total DFT energy =    -2235.540691536455
         Total DFT energy =    -2235.540692447885
         Total DFT energy =    -2235.540692447885

                    DFT Final Alpha Molecular Orbital Analysis
                    ------------------------------------------

 Vector    1  Occ=1.000000D+00  E=-4.243233D+02

 Vector   59  Occ=0.000000D+00  E= 1.519831D+00

 Vector   60  Occ=0.000000D+00  E= 1.519831D+00

 Vector   61  Occ=0.000000D+00  E= 1.635967D+00

 Vector   62  Occ=0.000000D+00  E= 1.635967D+00

 Vector   63  Occ=0.000000D+00  E= 1.635967D+00

 Vector   64  Occ=0.000000D+00  E= 3.119776D+00

 Vector   65  Occ=0.000000D+00  E= 3.119776D+00

 Vector   66  Occ=0.000000D+00  E= 3.119776D+00

 Vector   67  Occ=0.000000D+00  E= 3.124372D+00

 Vector   68  Occ=0.000000D+00  E= 6.663442D+00

 Vector   69  Occ=0.000000D+00  E= 7.051591D+01

 Vector    1  Occ=1.000000D+00  E=-4.243195D+02

 Vector    2  Occ=1.000000D+00  E=-5.338103D+01

 Vector    3  Occ=1.000000D+00  E=-4.776249D+01

 Vector    4  Occ=1.000000D+00  E=-4.776249D+01

 Vector    5  Occ=1.000000D+00  E=-4.776249D+01

 Vector    6  Occ=1.000000D+00  E=-6.903278D+00

 Vector    7  Occ=1.000000D+00  E=-5.003604D+00

 Vector    8  Occ=1.000000D+00  E=-5.003604D+00

 Vector    9  Occ=1.000000D+00  E=-5.003604D+00

 Vector   10  Occ=1.000000D+00  E=-1.669744D+00

 Vector   11  Occ=1.000000D+00  E=-1.669744D+00

 Vector   12  Occ=1.000000D+00  E=-1.669744D+00

 Vector   13  Occ=1.000000D+00  E=-1.669744D+00

 Vector   14  Occ=1.000000D+00  E=-1.669744D+00

 Vector   15  Occ=1.000000D+00  E=-5.730452D-01

 Vector   16  Occ=0.000000D+00  E=-2.876588D-02

 Vector   17  Occ=0.000000D+00  E=-2.876588D-02

 Vector   18  Occ=0.000000D+00  E=-2.876588D-02

 Vector   19  Occ=0.000000D+00  E= 4.672561D-02

 Vector   20  Occ=0.000000D+00  E= 7.341392D-02

 Vector   21  Occ=0.000000D+00  E= 7.341392D-02

 Vector   22  Occ=0.000000D+00  E= 7.341392D-02

 Vector   23  Occ=0.000000D+00  E= 1.967970D-01

 Vector   24  Occ=0.000000D+00  E= 1.967970D-01

 Vector   25  Occ=0.000000D+00  E= 1.967971D-01

 Vector   26  Occ=0.000000D+00  E= 1.967971D-01

 Vector   27  Occ=0.000000D+00  E= 1.967971D-01

 Vector   28  Occ=0.000000D+00  E= 2.074416D-01

 Vector   29  Occ=0.000000D+00  E= 2.890546D-01

 Vector   30  Occ=0.000000D+00  E= 2.890546D-01

 Vector   31  Occ=0.000000D+00  E= 2.890546D-01

 Vector   32  Occ=0.000000D+00  E= 5.484322D-01

 Vector   33  Occ=0.000000D+00  E= 5.484322D-01

 Vector   34  Occ=0.000000D+00  E= 5.484322D-01

 Vector   35  Occ=0.000000D+00  E= 5.484322D-01

 Vector   36  Occ=0.000000D+00  E= 5.484322D-01

 Vector   37  Occ=0.000000D+00  E= 6.233578D-01

 Vector   38  Occ=0.000000D+00  E= 6.233578D-01

 Vector   39  Occ=0.000000D+00  E= 6.233578D-01

 Vector   40  Occ=0.000000D+00  E= 6.233578D-01

 Vector   41  Occ=0.000000D+00  E= 6.233578D-01

 Vector   42  Occ=0.000000D+00  E= 6.233578D-01

 Vector   43  Occ=0.000000D+00  E= 6.233578D-01

 Vector   44  Occ=0.000000D+00  E= 6.280082D-01

 Vector   45  Occ=0.000000D+00  E= 7.453849D-01

 Vector   46  Occ=0.000000D+00  E= 7.453849D-01

 Vector   47  Occ=0.000000D+00  E= 7.453849D-01

 Vector   48  Occ=0.000000D+00  E= 1.096429D+00

 Vector   49  Occ=0.000000D+00  E= 1.570894D+00

 Vector   50  Occ=0.000000D+00  E= 1.570894D+00

 Vector   51  Occ=0.000000D+00  E= 1.570894D+00

 Vector   52  Occ=0.000000D+00  E= 1.570894D+00

 Vector   53  Occ=0.000000D+00  E= 1.570894D+00

 Vector   54  Occ=0.000000D+00  E= 1.607382D+00

 Vector   55  Occ=0.000000D+00  E= 1.607382D+00

 Vector   56  Occ=0.000000D+00  E= 1.607382D+00

 Vector   57  Occ=0.000000D+00  E= 1.607382D+00

 Vector   58  Occ=0.000000D+00  E= 1.607382D+00

 Vector   59  Occ=0.000000D+00  E= 1.607382D+00

 Vector   60  Occ=0.000000D+00  E= 1.607382D+00

 Vector   61  Occ=0.000000D+00  E= 1.676095D+00

 Vector   62  Occ=0.000000D+00  E= 1.676095D+00

 Vector   63  Occ=0.000000D+00  E= 1.676095D+00

 Vector   64  Occ=0.000000D+00  E= 3.169899D+00

 Vector   65  Occ=0.000000D+00  E= 3.176405D+00

 Vector   66  Occ=0.000000D+00  E= 3.176405D+00

 Vector   67  Occ=0.000000D+00  E= 3.176405D+00

 Vector   68  Occ=0.000000D+00  E= 6.717173D+00

 Vector   69  Occ=0.000000D+00  E= 7.052177D+01

  Root   1         a              0.221977185 a.u.                6.0403 eV
     Dipole Oscillator Strength                    0.0989402125
  Root   2         a              0.221977185 a.u.                6.0403 eV
     Dipole Oscillator Strength                    0.0989402123
  Root   3         a              0.221977185 a.u.                6.0403 eV
     Dipole Oscillator Strength                    0.0989402123
  Root   4         a              0.264139103 a.u.                7.1876 eV
     Dipole Oscillator Strength                    0.0000000000
  Root   5         a              0.264139113 a.u.                7.1876 eV
     Dipole Oscillator Strength                    0.0000000000
 Total times  cpu:       95.4s     wall:      109.3s
