 Output coordinates in angstroms (scale by  1.889725989 to convert to a.u.)

  No.       Tag          Charge          X              Y              Z
 ---- ---------------- ---------- -------------- -------------- --------------
    1 As                  33.0000     0.00000000     0.00000000     0.00000000

         Total DFT energy =    -2235.508858949788
         Total DFT energy =    -2235.538328163914
         Total DFT energy =    -2235.539175350078
         Total DFT energy =    -2235.539433999194
         Total DFT energy =    -2235.539452086095
         Total DFT energy =    -2235.539452982062
         Total DFT energy =    -2235.539452982062

                    DFT Final Alpha Molecular Orbital Analysis
                    ------------------------------------------

 Vector    1  Occ=1.000000D+00  E=-4.243196D+02

 Vector   59  Occ=0.000000D+00  E= 1.517004D+00

 Vector   60  Occ=0.000000D+00  E= 1.517004D+00

 Vector   61  Occ=0.000000D+00  E= 1.633902D+00

 Vector   62  Occ=0.000000D+00  E= 1.633902D+00

 Vector   63  Occ=0.000000D+00  E= 1.633902D+00

 Vector   64  Occ=0.000000D+00  E= 3.117038D+00

 Vector   65  Occ=0.000000D+00  E= 3.117038D+00

 Vector   66  Occ=0.000000D+00  E= 3.117038D+00

 Vector   67  Occ=0.000000D+00  E= 3.121116D+00

 Vector   68  Occ=0.000000D+00  E= 6.661319D+00

 Vector   69  Occ=0.000000D+00  E= 7.051177D+01

 Vector    1  Occ=1.000000D+00  E=-4.243158D+02

 Vector    2  Occ=1.000000D+00  E=-5.337732D+01

 Vector    3  Occ=1.000000D+00  E=-4.775880D+01

 Vector    4  Occ=1.000000D+00  E=-4.775880D+01

 Vector    5  Occ=1.000000D+00  E=-4.775880D+01

 Vector    6  Occ=1.000000D+00  E=-6.899423D+00

 Vector    7  Occ=1.000000D+00  E=-4.999774D+00

 Vector    8  Occ=1.000000D+00  E=-4.999774D+00

 Vector    9  Occ=1.000000D+00  E=-4.999774D+00

 Vector   10  Occ=1.000000D+00  E=-1.666233D+00

 Vector   11  Occ=1.000000D+00  E=-1.666233D+00

 Vector   12  Occ=1.000000D+00  E=-1.666233D+00

 Vector   13  Occ=1.000000D+00  E=-1.666233D+00

 Vector   14  Occ=1.000000D+00  E=-1.666233D+00

 Vector   15  Occ=1.000000D+00  E=-5.713045D-01

 Vector   16  Occ=0.000000D+00  E=-3.012660D-02

 Vector   17  Occ=0.000000D+00  E=-3.012660D-02

 Vector   18  Occ=0.000000D+00  E=-3.012660D-02

 Vector   19  Occ=0.000000D+00  E= 4.664812D-02

 Vector   20  Occ=0.000000D+00  E= 7.317839D-02

 Vector   21  Occ=0.000000D+00  E= 7.317839D-02

 Vector   22  Occ=0.000000D+00  E= 7.317839D-02

 Vector   23  Occ=0.000000D+00  E= 1.963851D-01

 Vector   24  Occ=0.000000D+00  E= 1.963851D-01

 Vector   25  Occ=0.000000D+00  E= 1.963851D-01

 Vector   26  Occ=0.000000D+00  E= 1.963851D-01

 Vector   27  Occ=0.000000D+00  E= 1.963851D-01

 Vector   28  Occ=0.000000D+00  E= 2.070472D-01

 Vector   29  Occ=0.000000D+00  E= 2.884594D-01

 Vector   30  Occ=0.000000D+00  E= 2.884594D-01

 Vector   31  Occ=0.000000D+00  E= 2.884594D-01

 Vector   32  Occ=0.000000D+00  E= 5.467201D-01

 Vector   33  Occ=0.000000D+00  E= 5.467201D-01

 Vector   34  Occ=0.000000D+00  E= 5.467201D-01

 Vector   35  Occ=0.000000D+00  E= 5.467201D-01

 Vector   36  Occ=0.000000D+00  E= 5.467201D-01

 Vector   37  Occ=0.000000D+00  E= 6.222808D-01

 Vector   38  Occ=0.000000D+00  E= 6.222808D-01

 Vector   39  Occ=0.000000D+00  E= 6.222808D-01

 Vector   40  Occ=0.000000D+00  E= 6.222808D-01

 Vector   41  Occ=0.000000D+00  E= 6.222808D-01

 Vector   42  Occ=0.000000D+00  E= 6.222808D-01

 Vector   43  Occ=0.000000D+00  E= 6.222809D-01

 Vector   44  Occ=0.000000D+00  E= 6.269353D-01

 Vector   45  Occ=0.000000D+00  E= 7.441828D-01

 Vector   46  Occ=0.000000D+00  E= 7.441828D-01

 Vector   47  Occ=0.000000D+00  E= 7.441828D-01

 Vector   48  Occ=0.000000D+00  E= 1.095764D+00

 Vector   49  Occ=0.000000D+00  E= 1.568153D+00

 Vector   50  Occ=0.000000D+00  E= 1.568153D+00

 Vector   51  Occ=0.000000D+00  E= 1.568153D+00

 Vector   52  Occ=0.000000D+00  E= 1.568153D+00

 Vector   53  Occ=0.000000D+00  E= 1.568153D+00

 Vector   54  Occ=0.000000D+00  E= 1.604898D+00

 Vector   55  Occ=0.000000D+00  E= 1.604898D+00

 Vector   56  Occ=0.000000D+00  E= 1.604898D+00

 Vector   57  Occ=0.000000D+00  E= 1.604898D+00

 Vector   58  Occ=0.000000D+00  E= 1.604898D+00

 Vector   59  Occ=0.000000D+00  E= 1.604898D+00

 Vector   60  Occ=0.000000D+00  E= 1.604898D+00

 Vector   61  Occ=0.000000D+00  E= 1.674429D+00

 Vector   62  Occ=0.000000D+00  E= 1.674429D+00

 Vector   63  Occ=0.000000D+00  E= 1.674429D+00

 Vector   64  Occ=0.000000D+00  E= 3.166932D+00

 Vector   65  Occ=0.000000D+00  E= 3.174080D+00

 Vector   66  Occ=0.000000D+00  E= 3.174080D+00

 Vector   67  Occ=0.000000D+00  E= 3.174080D+00

 Vector   68  Occ=0.000000D+00  E= 6.715612D+00

 Vector   69  Occ=0.000000D+00  E= 7.051765D+01

  Root   1         a              0.220833676 a.u.                6.0092 eV
     Dipole Oscillator Strength                    0.0978500836
  Root   2         a              0.220833676 a.u.                6.0092 eV
     Dipole Oscillator Strength                    0.0978500837
  Root   3         a              0.220833676 a.u.                6.0092 eV
     Dipole Oscillator Strength                    0.0978500837
  Root   4         a              0.262770600 a.u.                7.1504 eV
     Dipole Oscillator Strength                    0.0000000000
  Root   5         a              0.262770601 a.u.                7.1504 eV
     Dipole Oscillator Strength                    0.0000000000
 Total times  cpu:       85.9s     wall:      100.5s
