 Output coordinates in angstroms (scale by  1.889725989 to convert to a.u.)

  No.       Tag          Charge          X              Y              Z
 ---- ---------------- ---------- -------------- -------------- --------------
    1 B                    5.0000     0.00000000     0.00000000     0.00000000

         Total DFT energy =      -24.565247574610
         Total DFT energy =      -24.617379880183
         Total DFT energy =      -24.622876172593
         Total DFT energy =      -24.624054744639
         Total DFT energy =      -24.624134707370
         Total DFT energy =      -24.624136886629
         Total DFT energy =      -24.624136956037
         Total DFT energy =      -24.624136956037

                    DFT Final Alpha Molecular Orbital Analysis
                    ------------------------------------------

 Vector    1  Occ=1.000000D+00  E=-6.842012D+00

 Vector   31  Occ=0.000000D+00  E= 6.513986D-01

 Vector   32  Occ=0.000000D+00  E= 6.575111D-01

 Vector   33  Occ=0.000000D+00  E= 6.643564D-01

 Vector   34  Occ=0.000000D+00  E= 6.643564D-01

 Vector   35  Occ=0.000000D+00  E= 1.149854D+00

 Vector   36  Occ=0.000000D+00  E= 1.721706D+00

 Vector   37  Occ=0.000000D+00  E= 1.728359D+00

 Vector   38  Occ=0.000000D+00  E= 1.728359D+00

 Vector   39  Occ=0.000000D+00  E= 1.967979D+00

 Vector   40  Occ=0.000000D+00  E= 1.967980D+00

 Vector   41  Occ=0.000000D+00  E= 1.972618D+00

 Vector   42  Occ=0.000000D+00  E= 1.978419D+00

 Vector   43  Occ=0.000000D+00  E= 1.978419D+00

 Vector   44  Occ=0.000000D+00  E= 2.080403D+00

 Vector   45  Occ=0.000000D+00  E= 2.080403D+00

 Vector   46  Occ=0.000000D+00  E= 2.084177D+00

 Vector   47  Occ=0.000000D+00  E= 2.084177D+00

 Vector   48  Occ=0.000000D+00  E= 2.084737D+00

 Vector   49  Occ=0.000000D+00  E= 2.084737D+00

 Vector   50  Occ=0.000000D+00  E= 2.085289D+00

 Vector   51  Occ=0.000000D+00  E= 3.650768D+00

 Vector   52  Occ=0.000000D+00  E= 3.737593D+00

 Vector   53  Occ=0.000000D+00  E= 3.737593D+00

 Vector   54  Occ=0.000000D+00  E= 3.737755D+00

 Vector   55  Occ=0.000000D+00  E= 5.654130D+00

 Vector    1  Occ=1.000000D+00  E=-6.832359D+00

 Vector    2  Occ=1.000000D+00  E=-4.646806D-01

 Vector    3  Occ=0.000000D+00  E= 2.073758D-03

 Vector    4  Occ=0.000000D+00  E= 2.073761D-03

 Vector    5  Occ=0.000000D+00  E= 2.940928D-02

 Vector    6  Occ=0.000000D+00  E= 4.219925D-02

 Vector    7  Occ=0.000000D+00  E= 6.368612D-02

 Vector    8  Occ=0.000000D+00  E= 6.368612D-02

 Vector    9  Occ=0.000000D+00  E= 8.176554D-02

 Vector   10  Occ=0.000000D+00  E= 1.852563D-01

 Vector   11  Occ=0.000000D+00  E= 1.852563D-01

 Vector   12  Occ=0.000000D+00  E= 1.858383D-01

 Vector   13  Occ=0.000000D+00  E= 1.924783D-01

 Vector   14  Occ=0.000000D+00  E= 1.924783D-01

 Vector   15  Occ=0.000000D+00  E= 1.972905D-01

 Vector   16  Occ=0.000000D+00  E= 2.582857D-01

 Vector   17  Occ=0.000000D+00  E= 2.582857D-01

 Vector   18  Occ=0.000000D+00  E= 2.777589D-01

 Vector   19  Occ=0.000000D+00  E= 6.206176D-01

 Vector   20  Occ=0.000000D+00  E= 6.206176D-01

 Vector   21  Occ=0.000000D+00  E= 6.448683D-01

 Vector   22  Occ=0.000000D+00  E= 6.448683D-01

 Vector   23  Occ=0.000000D+00  E= 6.489023D-01

 Vector   24  Occ=0.000000D+00  E= 6.489023D-01

 Vector   25  Occ=0.000000D+00  E= 6.495103D-01

 Vector   26  Occ=0.000000D+00  E= 6.593259D-01

 Vector   27  Occ=0.000000D+00  E= 6.593260D-01

 Vector   28  Occ=0.000000D+00  E= 6.604919D-01

 Vector   29  Occ=0.000000D+00  E= 6.625128D-01

 Vector   30  Occ=0.000000D+00  E= 6.625131D-01

 Vector   31  Occ=0.000000D+00  E= 6.667388D-01

 Vector   32  Occ=0.000000D+00  E= 6.742803D-01

 Vector   33  Occ=0.000000D+00  E= 6.742805D-01

 Vector   34  Occ=0.000000D+00  E= 6.989976D-01

 Vector   35  Occ=0.000000D+00  E= 1.155868D+00

 Vector   36  Occ=0.000000D+00  E= 1.735352D+00

 Vector   37  Occ=0.000000D+00  E= 1.735352D+00

 Vector   38  Occ=0.000000D+00  E= 1.768813D+00

 Vector   39  Occ=0.000000D+00  E= 1.982987D+00

 Vector   40  Occ=0.000000D+00  E= 1.982987D+00

 Vector   41  Occ=0.000000D+00  E= 2.023970D+00

 Vector   42  Occ=0.000000D+00  E= 2.023970D+00

 Vector   43  Occ=0.000000D+00  E= 2.035491D+00

 Vector   44  Occ=0.000000D+00  E= 2.083907D+00

 Vector   45  Occ=0.000000D+00  E= 2.083907D+00

 Vector   46  Occ=0.000000D+00  E= 2.113808D+00

 Vector   47  Occ=0.000000D+00  E= 2.113808D+00

 Vector   48  Occ=0.000000D+00  E= 2.130519D+00

 Vector   49  Occ=0.000000D+00  E= 2.130519D+00

 Vector   50  Occ=0.000000D+00  E= 2.136578D+00

 Vector   51  Occ=0.000000D+00  E= 3.672559D+00

 Vector   52  Occ=0.000000D+00  E= 3.745805D+00

 Vector   53  Occ=0.000000D+00  E= 3.745805D+00

 Vector   54  Occ=0.000000D+00  E= 3.777860D+00

 Vector   55  Occ=0.000000D+00  E= 5.676289D+00

  Root   1         a              0.000115028 a.u.                0.0031 eV
     Dipole Oscillator Strength                    0.0000000000
  Root   2         a              0.000120470 a.u.                0.0033 eV
     Dipole Oscillator Strength                    0.0000000000
  Root   3         a              0.186285957 a.u.                5.0691 eV
     Dipole Oscillator Strength                    0.0973149644
  Root   4         a              0.221371122 a.u.                6.0238 eV
     Dipole Oscillator Strength                    0.0000000000
  Root   5         a              0.221371136 a.u.                6.0238 eV
     Dipole Oscillator Strength                    0.0000000000
 Total times  cpu:       18.6s     wall:       22.5s
