 Output coordinates in angstroms (scale by  1.889725989 to convert to a.u.)

  No.       Tag          Charge          X              Y              Z
 ---- ---------------- ---------- -------------- -------------- --------------
    1 B                    5.0000     0.00000000     0.00000000     0.00000000

         Total DFT energy =      -24.565374205810
         Total DFT energy =      -24.617289490310
         Total DFT energy =      -24.622613707193
         Total DFT energy =      -24.623756926386
         Total DFT energy =      -24.623838584363
         Total DFT energy =      -24.623840570762
         Total DFT energy =      -24.623840639325
         Total DFT energy =      -24.623840639325

                    DFT Final Alpha Molecular Orbital Analysis
                    ------------------------------------------

 Vector    1  Occ=1.000000D+00  E=-6.831764D+00

 Vector   31  Occ=0.000000D+00  E= 6.496620D-01

 Vector   32  Occ=0.000000D+00  E= 6.547071D-01

 Vector   33  Occ=0.000000D+00  E= 6.614731D-01

 Vector   34  Occ=0.000000D+00  E= 6.614739D-01

 Vector   35  Occ=0.000000D+00  E= 1.148632D+00

 Vector   36  Occ=0.000000D+00  E= 1.715221D+00

 Vector   37  Occ=0.000000D+00  E= 1.722400D+00

 Vector   38  Occ=0.000000D+00  E= 1.722402D+00

 Vector   39  Occ=0.000000D+00  E= 1.960820D+00

 Vector   40  Occ=0.000000D+00  E= 1.960821D+00

 Vector   41  Occ=0.000000D+00  E= 1.965715D+00

 Vector   42  Occ=0.000000D+00  E= 1.972064D+00

 Vector   43  Occ=0.000000D+00  E= 1.972064D+00

 Vector   44  Occ=0.000000D+00  E= 2.074099D+00

 Vector   45  Occ=0.000000D+00  E= 2.074099D+00

 Vector   46  Occ=0.000000D+00  E= 2.078366D+00

 Vector   47  Occ=0.000000D+00  E= 2.078366D+00

 Vector   48  Occ=0.000000D+00  E= 2.078762D+00

 Vector   49  Occ=0.000000D+00  E= 2.078826D+00

 Vector   50  Occ=0.000000D+00  E= 2.078826D+00

 Vector   51  Occ=0.000000D+00  E= 3.642904D+00

 Vector   52  Occ=0.000000D+00  E= 3.733074D+00

 Vector   53  Occ=0.000000D+00  E= 3.733954D+00

 Vector   54  Occ=0.000000D+00  E= 3.733955D+00

 Vector   55  Occ=0.000000D+00  E= 5.649010D+00

 Vector    1  Occ=1.000000D+00  E=-6.822143D+00

 Vector    2  Occ=1.000000D+00  E=-4.618502D-01

 Vector    3  Occ=0.000000D+00  E= 9.532046D-05

 Vector    4  Occ=0.000000D+00  E= 9.535739D-05

 Vector    5  Occ=0.000000D+00  E= 2.838334D-02

 Vector    6  Occ=0.000000D+00  E= 4.215480D-02

 Vector    7  Occ=0.000000D+00  E= 6.288466D-02

 Vector    8  Occ=0.000000D+00  E= 6.288467D-02

 Vector    9  Occ=0.000000D+00  E= 8.026331D-02

 Vector   10  Occ=0.000000D+00  E= 1.850065D-01

 Vector   11  Occ=0.000000D+00  E= 1.850066D-01

 Vector   12  Occ=0.000000D+00  E= 1.855129D-01

 Vector   13  Occ=0.000000D+00  E= 1.922276D-01

 Vector   14  Occ=0.000000D+00  E= 1.922276D-01

 Vector   15  Occ=0.000000D+00  E= 1.970105D-01

 Vector   16  Occ=0.000000D+00  E= 2.567585D-01

 Vector   17  Occ=0.000000D+00  E= 2.567585D-01

 Vector   18  Occ=0.000000D+00  E= 2.760086D-01

 Vector   19  Occ=0.000000D+00  E= 6.179343D-01

 Vector   20  Occ=0.000000D+00  E= 6.179343D-01

 Vector   21  Occ=0.000000D+00  E= 6.422574D-01

 Vector   22  Occ=0.000000D+00  E= 6.422575D-01

 Vector   23  Occ=0.000000D+00  E= 6.470027D-01

 Vector   24  Occ=0.000000D+00  E= 6.477797D-01

 Vector   25  Occ=0.000000D+00  E= 6.477797D-01

 Vector   26  Occ=0.000000D+00  E= 6.582054D-01

 Vector   27  Occ=0.000000D+00  E= 6.582193D-01

 Vector   28  Occ=0.000000D+00  E= 6.582193D-01

 Vector   29  Occ=0.000000D+00  E= 6.608111D-01

 Vector   30  Occ=0.000000D+00  E= 6.608113D-01

 Vector   31  Occ=0.000000D+00  E= 6.655349D-01

 Vector   32  Occ=0.000000D+00  E= 6.720506D-01

 Vector   33  Occ=0.000000D+00  E= 6.720506D-01

 Vector   34  Occ=0.000000D+00  E= 6.961547D-01

 Vector   35  Occ=0.000000D+00  E= 1.154932D+00

 Vector   36  Occ=0.000000D+00  E= 1.729387D+00

 Vector   37  Occ=0.000000D+00  E= 1.729387D+00

 Vector   38  Occ=0.000000D+00  E= 1.762840D+00

 Vector   39  Occ=0.000000D+00  E= 1.976298D+00

 Vector   40  Occ=0.000000D+00  E= 1.976298D+00

 Vector   41  Occ=0.000000D+00  E= 2.017296D+00

 Vector   42  Occ=0.000000D+00  E= 2.017296D+00

 Vector   43  Occ=0.000000D+00  E= 2.028852D+00

 Vector   44  Occ=0.000000D+00  E= 2.078292D+00

 Vector   45  Occ=0.000000D+00  E= 2.078292D+00

 Vector   46  Occ=0.000000D+00  E= 2.108259D+00

 Vector   47  Occ=0.000000D+00  E= 2.108259D+00

 Vector   48  Occ=0.000000D+00  E= 2.125037D+00

 Vector   49  Occ=0.000000D+00  E= 2.125037D+00

 Vector   50  Occ=0.000000D+00  E= 2.131118D+00

 Vector   51  Occ=0.000000D+00  E= 3.664846D+00

 Vector   52  Occ=0.000000D+00  E= 3.742348D+00

 Vector   53  Occ=0.000000D+00  E= 3.742348D+00

 Vector   54  Occ=0.000000D+00  E= 3.774454D+00

 Vector   55  Occ=0.000000D+00  E= 5.671647D+00

  Root   1         a              0.000064849 a.u.                0.0018 eV
     Dipole Oscillator Strength                    0.0000000000
  Root   2         a              0.000121262 a.u.                0.0033 eV
     Dipole Oscillator Strength                    0.0000000000
  Root   3         a              0.183781302 a.u.                5.0009 eV
     Dipole Oscillator Strength                    0.0944766403
  Root   4         a              0.218201741 a.u.                5.9376 eV
     Dipole Oscillator Strength                    0.0000000000
  Root   5         a              0.218201827 a.u.                5.9376 eV
     Dipole Oscillator Strength                    0.0000000000
 Total times  cpu:       12.6s     wall:       15.3s
