 Output coordinates in angstroms (scale by  1.889725989 to convert to a.u.)

  No.       Tag          Charge          X              Y              Z
 ---- ---------------- ---------- -------------- -------------- --------------
    1 Be                   4.0000     0.00000000     0.00000000     0.00000000

         Total DFT energy =      -14.635301971828
         Total DFT energy =      -14.637273312908
         Total DFT energy =      -14.637317003182
         Total DFT energy =      -14.637319789208
         Total DFT energy =      -14.637320101109
         Total DFT energy =      -14.637320101109

                       DFT Final Molecular Orbital Analysis
                       ------------------------------------

 Vector    1  Occ=2.000000D+00  E=-4.090074D+00

 Vector    2  Occ=2.000000D+00  E=-3.238611D-01

 Vector    3  Occ=0.000000D+00  E= 1.048458D-02

 Vector    4  Occ=0.000000D+00  E= 1.048458D-02

 Vector    5  Occ=0.000000D+00  E= 1.048458D-02

 Vector    6  Occ=0.000000D+00  E= 3.243901D-02

 Vector    7  Occ=0.000000D+00  E= 3.587347D-02

 Vector    8  Occ=0.000000D+00  E= 3.587347D-02

 Vector    9  Occ=0.000000D+00  E= 3.587347D-02

 Vector   10  Occ=0.000000D+00  E= 1.861565D-01

 Vector   11  Occ=0.000000D+00  E= 1.861565D-01

 Vector   12  Occ=0.000000D+00  E= 1.861565D-01

 Vector   13  Occ=0.000000D+00  E= 1.861565D-01

 Vector   14  Occ=0.000000D+00  E= 1.861565D-01

 Vector   15  Occ=0.000000D+00  E= 1.925798D-01

 Vector   16  Occ=0.000000D+00  E= 1.990908D-01

 Vector   17  Occ=0.000000D+00  E= 1.990908D-01

 Vector   18  Occ=0.000000D+00  E= 1.990908D-01

 Vector   19  Occ=0.000000D+00  E= 5.701372D-01

 Vector   20  Occ=0.000000D+00  E= 5.701372D-01

 Vector   21  Occ=0.000000D+00  E= 5.701372D-01

 Vector   22  Occ=0.000000D+00  E= 5.701372D-01

 Vector   23  Occ=0.000000D+00  E= 5.701372D-01

 Vector   24  Occ=0.000000D+00  E= 5.739674D-01

 Vector   25  Occ=0.000000D+00  E= 5.739674D-01

 Vector   26  Occ=0.000000D+00  E= 5.739674D-01

 Vector   27  Occ=0.000000D+00  E= 5.739674D-01

 Vector   28  Occ=0.000000D+00  E= 5.739674D-01

 Vector   29  Occ=0.000000D+00  E= 5.739674D-01

 Vector   30  Occ=0.000000D+00  E= 5.739674D-01

 Vector   31  Occ=0.000000D+00  E= 5.991678D-01

 Vector   32  Occ=0.000000D+00  E= 5.991678D-01

 Vector   33  Occ=0.000000D+00  E= 5.991678D-01

 Vector   34  Occ=0.000000D+00  E= 6.025741D-01

 Vector   35  Occ=0.000000D+00  E= 1.129964D+00

 Vector   36  Occ=0.000000D+00  E= 1.432975D+00

 Vector   37  Occ=0.000000D+00  E= 1.432975D+00

 Vector   38  Occ=0.000000D+00  E= 1.432975D+00

 Vector   39  Occ=0.000000D+00  E= 1.432975D+00

 Vector   40  Occ=0.000000D+00  E= 1.432975D+00

 Vector   41  Occ=0.000000D+00  E= 1.469087D+00

 Vector   42  Occ=0.000000D+00  E= 1.469087D+00

 Vector   43  Occ=0.000000D+00  E= 1.469087D+00

 Vector   44  Occ=0.000000D+00  E= 1.575919D+00

 Vector   45  Occ=0.000000D+00  E= 1.575919D+00

 Vector   46  Occ=0.000000D+00  E= 1.575919D+00

 Vector   47  Occ=0.000000D+00  E= 1.575919D+00

 Vector   48  Occ=0.000000D+00  E= 1.575919D+00

 Vector   49  Occ=0.000000D+00  E= 1.575919D+00

 Vector   50  Occ=0.000000D+00  E= 1.575919D+00

 Vector   51  Occ=0.000000D+00  E= 2.316930D+00

 Vector   52  Occ=0.000000D+00  E= 4.444824D+00

 Vector   53  Occ=0.000000D+00  E= 4.444824D+00

 Vector   54  Occ=0.000000D+00  E= 4.444824D+00

 Vector   55  Occ=0.000000D+00  E= 9.206843D+00

  Root   1 singlet a              0.182871656 a.u.                4.9762 eV
     Dipole Oscillator Strength                    0.4620941149
  Root   2 singlet a              0.182871656 a.u.                4.9762 eV
     Dipole Oscillator Strength                    0.4620938000
  Root   3 singlet a              0.182871656 a.u.                4.9762 eV
     Dipole Oscillator Strength                    0.4620938000
  Root   4 singlet a              0.239708061 a.u.                6.5228 eV
     Dipole Oscillator Strength                    0.0000000000
  Root   5 singlet a              0.261299001 a.u.                7.1103 eV
     Dipole Oscillator Strength                    0.0033058450
  Root   1 triplet a              0.060261699 a.u.                1.6398 eV
  Root   2 triplet a              0.060261699 a.u.                1.6398 eV
  Root   3 triplet a              0.060261699 a.u.                1.6398 eV
  Root   4 triplet a              0.223297468 a.u.                6.0762 eV
  Root   5 triplet a              0.255133400 a.u.                6.9425 eV
 Total times  cpu:       11.4s     wall:       13.8s
