 Output coordinates in angstroms (scale by  1.889725989 to convert to a.u.)

  No.       Tag          Charge          X              Y              Z
 ---- ---------------- ---------- -------------- -------------- --------------
    1 Be                   4.0000     0.00000000     0.00000000     0.00000000

         Total DFT energy =      -14.635408758426
         Total DFT energy =      -14.637363573560
         Total DFT energy =      -14.637409192093
         Total DFT energy =      -14.637412192603
         Total DFT energy =      -14.637412524405
         Total DFT energy =      -14.637412524405

                       DFT Final Molecular Orbital Analysis
                       ------------------------------------

 Vector    1  Occ=2.000000D+00  E=-4.102144D+00

 Vector    2  Occ=2.000000D+00  E=-3.258785D-01

 Vector    3  Occ=0.000000D+00  E= 1.085464D-02

 Vector    4  Occ=0.000000D+00  E= 1.085464D-02

 Vector    5  Occ=0.000000D+00  E= 1.085465D-02

 Vector    6  Occ=0.000000D+00  E= 3.246609D-02

 Vector    7  Occ=0.000000D+00  E= 3.691148D-02

 Vector    8  Occ=0.000000D+00  E= 3.691148D-02

 Vector    9  Occ=0.000000D+00  E= 3.691148D-02

 Vector   10  Occ=0.000000D+00  E= 1.865399D-01

 Vector   11  Occ=0.000000D+00  E= 1.865399D-01

 Vector   12  Occ=0.000000D+00  E= 1.865399D-01

 Vector   13  Occ=0.000000D+00  E= 1.865399D-01

 Vector   14  Occ=0.000000D+00  E= 1.865399D-01

 Vector   15  Occ=0.000000D+00  E= 1.930372D-01

 Vector   16  Occ=0.000000D+00  E= 2.009659D-01

 Vector   17  Occ=0.000000D+00  E= 2.009659D-01

 Vector   18  Occ=0.000000D+00  E= 2.009659D-01

 Vector   19  Occ=0.000000D+00  E= 5.730561D-01

 Vector   20  Occ=0.000000D+00  E= 5.730561D-01

 Vector   21  Occ=0.000000D+00  E= 5.730561D-01

 Vector   22  Occ=0.000000D+00  E= 5.730561D-01

 Vector   23  Occ=0.000000D+00  E= 5.730561D-01

 Vector   24  Occ=0.000000D+00  E= 5.752930D-01

 Vector   25  Occ=0.000000D+00  E= 5.752930D-01

 Vector   26  Occ=0.000000D+00  E= 5.752930D-01

 Vector   27  Occ=0.000000D+00  E= 5.752930D-01

 Vector   28  Occ=0.000000D+00  E= 5.752930D-01

 Vector   29  Occ=0.000000D+00  E= 5.752930D-01

 Vector   30  Occ=0.000000D+00  E= 5.752931D-01

 Vector   31  Occ=0.000000D+00  E= 6.026552D-01

 Vector   32  Occ=0.000000D+00  E= 6.026552D-01

 Vector   33  Occ=0.000000D+00  E= 6.026552D-01

 Vector   34  Occ=0.000000D+00  E= 6.041495D-01

 Vector   35  Occ=0.000000D+00  E= 1.132618D+00

 Vector   36  Occ=0.000000D+00  E= 1.438500D+00

 Vector   37  Occ=0.000000D+00  E= 1.438500D+00

 Vector   38  Occ=0.000000D+00  E= 1.438500D+00

 Vector   39  Occ=0.000000D+00  E= 1.438500D+00

 Vector   40  Occ=0.000000D+00  E= 1.438500D+00

 Vector   41  Occ=0.000000D+00  E= 1.475661D+00

 Vector   42  Occ=0.000000D+00  E= 1.475661D+00

 Vector   43  Occ=0.000000D+00  E= 1.475661D+00

 Vector   44  Occ=0.000000D+00  E= 1.581302D+00

 Vector   45  Occ=0.000000D+00  E= 1.581302D+00

 Vector   46  Occ=0.000000D+00  E= 1.581302D+00

 Vector   47  Occ=0.000000D+00  E= 1.581302D+00

 Vector   48  Occ=0.000000D+00  E= 1.581302D+00

 Vector   49  Occ=0.000000D+00  E= 1.581302D+00

 Vector   50  Occ=0.000000D+00  E= 1.581302D+00

 Vector   51  Occ=0.000000D+00  E= 2.323548D+00

 Vector   52  Occ=0.000000D+00  E= 4.452076D+00

 Vector   53  Occ=0.000000D+00  E= 4.452076D+00

 Vector   54  Occ=0.000000D+00  E= 4.452076D+00

 Vector   55  Occ=0.000000D+00  E= 9.216547D+00

  Root   1 singlet a              0.182783533 a.u.                4.9738 eV
     Dipole Oscillator Strength                    0.4622525858
  Root   2 singlet a              0.182783533 a.u.                4.9738 eV
     Dipole Oscillator Strength                    0.4622523403
  Root   3 singlet a              0.182783533 a.u.                4.9738 eV
     Dipole Oscillator Strength                    0.4622523403
  Root   4 singlet a              0.241190880 a.u.                6.5631 eV
     Dipole Oscillator Strength                    0.0000000000
  Root   5 singlet a              0.263110126 a.u.                7.1596 eV
     Dipole Oscillator Strength                    0.0028893965
  Root   1 triplet a              0.059378786 a.u.                1.6158 eV
  Root   2 triplet a              0.059378786 a.u.                1.6158 eV
  Root   3 triplet a              0.059378786 a.u.                1.6158 eV
  Root   4 triplet a              0.224500270 a.u.                6.1090 eV
  Root   5 triplet a              0.257002148 a.u.                6.9934 eV
 Total times  cpu:       15.5s     wall:       19.1s
