 Output coordinates in angstroms (scale by  1.889725989 to convert to a.u.)

  No.       Tag          Charge          X              Y              Z
 ---- ---------------- ---------- -------------- -------------- --------------
    1 Br                  35.0000     0.00000000     0.00000000     0.00000000

         Total DFT energy =    -2573.787027301971
         Total DFT energy =    -2573.803299489272
         Total DFT energy =    -2573.803953957227
         Total DFT energy =    -2573.804087017820
         Total DFT energy =    -2573.804095701629
         Total DFT energy =    -2573.804096428672
         Total DFT energy =    -2573.804096428672

                    DFT Final Alpha Molecular Orbital Analysis
                    ------------------------------------------

 Vector    1  Occ=1.000000D+00  E=-4.812364D+02

 Vector   59  Occ=0.000000D+00  E= 2.063400D+00

 Vector   60  Occ=0.000000D+00  E= 2.063400D+00

 Vector   61  Occ=0.000000D+00  E= 2.317726D+00

 Vector   62  Occ=0.000000D+00  E= 2.346883D+00

 Vector   63  Occ=0.000000D+00  E= 2.346883D+00

 Vector   64  Occ=0.000000D+00  E= 4.344793D+00

 Vector   65  Occ=0.000000D+00  E= 4.423122D+00

 Vector   66  Occ=0.000000D+00  E= 4.461226D+00

 Vector   67  Occ=0.000000D+00  E= 4.461226D+00

 Vector   68  Occ=0.000000D+00  E= 9.293571D+00

 Vector   69  Occ=0.000000D+00  E= 7.777151D+01

 Vector    1  Occ=1.000000D+00  E=-4.812344D+02

 Vector    2  Occ=1.000000D+00  E=-6.201933D+01

 Vector    3  Occ=1.000000D+00  E=-5.593496D+01

 Vector    4  Occ=1.000000D+00  E=-5.593025D+01

 Vector    5  Occ=1.000000D+00  E=-5.593025D+01

 Vector    6  Occ=1.000000D+00  E=-8.605640D+00

 Vector    7  Occ=1.000000D+00  E=-6.484642D+00

 Vector    8  Occ=1.000000D+00  E=-6.468080D+00

 Vector    9  Occ=1.000000D+00  E=-6.468080D+00

 Vector   10  Occ=1.000000D+00  E=-2.680513D+00

 Vector   11  Occ=1.000000D+00  E=-2.676998D+00

 Vector   12  Occ=1.000000D+00  E=-2.676998D+00

 Vector   13  Occ=1.000000D+00  E=-2.665529D+00

 Vector   14  Occ=1.000000D+00  E=-2.665529D+00

 Vector   15  Occ=1.000000D+00  E=-8.408259D-01

 Vector   16  Occ=1.000000D+00  E=-3.998015D-01

 Vector   17  Occ=1.000000D+00  E=-3.998015D-01

 Vector   18  Occ=0.000000D+00  E=-1.438018D-01

 Vector   19  Occ=0.000000D+00  E= 6.042956D-02

 Vector   20  Occ=0.000000D+00  E= 8.465229D-02

 Vector   21  Occ=0.000000D+00  E= 8.637451D-02

 Vector   22  Occ=0.000000D+00  E= 8.637451D-02

 Vector   23  Occ=0.000000D+00  E= 2.416804D-01

 Vector   24  Occ=0.000000D+00  E= 2.416804D-01

 Vector   25  Occ=0.000000D+00  E= 2.445771D-01

 Vector   26  Occ=0.000000D+00  E= 2.445771D-01

 Vector   27  Occ=0.000000D+00  E= 2.477467D-01

 Vector   28  Occ=0.000000D+00  E= 2.885727D-01

 Vector   29  Occ=0.000000D+00  E= 3.607788D-01

 Vector   30  Occ=0.000000D+00  E= 3.627601D-01

 Vector   31  Occ=0.000000D+00  E= 3.627601D-01

 Vector   32  Occ=0.000000D+00  E= 6.665470D-01

 Vector   33  Occ=0.000000D+00  E= 6.665470D-01

 Vector   34  Occ=0.000000D+00  E= 6.694769D-01

 Vector   35  Occ=0.000000D+00  E= 6.694769D-01

 Vector   36  Occ=0.000000D+00  E= 6.774236D-01

 Vector   37  Occ=0.000000D+00  E= 8.540044D-01

 Vector   38  Occ=0.000000D+00  E= 8.540044D-01

 Vector   39  Occ=0.000000D+00  E= 8.543478D-01

 Vector   40  Occ=0.000000D+00  E= 8.543478D-01

 Vector   41  Occ=0.000000D+00  E= 8.567810D-01

 Vector   42  Occ=0.000000D+00  E= 8.567810D-01

 Vector   43  Occ=0.000000D+00  E= 8.586380D-01

 Vector   44  Occ=0.000000D+00  E= 9.263497D-01

 Vector   45  Occ=0.000000D+00  E= 1.009652D+00

 Vector   46  Occ=0.000000D+00  E= 1.011556D+00

 Vector   47  Occ=0.000000D+00  E= 1.011556D+00

 Vector   48  Occ=0.000000D+00  E= 1.623983D+00

 Vector   49  Occ=0.000000D+00  E= 2.011519D+00

 Vector   50  Occ=0.000000D+00  E= 2.011519D+00

 Vector   51  Occ=0.000000D+00  E= 2.013506D+00

 Vector   52  Occ=0.000000D+00  E= 2.013506D+00

 Vector   53  Occ=0.000000D+00  E= 2.014582D+00

 Vector   54  Occ=0.000000D+00  E= 2.064038D+00

 Vector   55  Occ=0.000000D+00  E= 2.064038D+00

 Vector   56  Occ=0.000000D+00  E= 2.065899D+00

 Vector   57  Occ=0.000000D+00  E= 2.065899D+00

 Vector   58  Occ=0.000000D+00  E= 2.068073D+00

 Vector   59  Occ=0.000000D+00  E= 2.068073D+00

 Vector   60  Occ=0.000000D+00  E= 2.072302D+00

 Vector   61  Occ=0.000000D+00  E= 2.350401D+00

 Vector   62  Occ=0.000000D+00  E= 2.353052D+00

 Vector   63  Occ=0.000000D+00  E= 2.353052D+00

 Vector   64  Occ=0.000000D+00  E= 4.361410D+00

 Vector   65  Occ=0.000000D+00  E= 4.466050D+00

 Vector   66  Occ=0.000000D+00  E= 4.469460D+00

 Vector   67  Occ=0.000000D+00  E= 4.469460D+00

 Vector   68  Occ=0.000000D+00  E= 9.313429D+00

 Vector   69  Occ=0.000000D+00  E= 7.777396D+01

  Root   1         a              0.000115148 a.u.                0.0031 eV
     Dipole Oscillator Strength                    0.0000000000
  Root   2         a              0.000115152 a.u.                0.0031 eV
     Dipole Oscillator Strength                    0.0000000000
  Root   3         a              0.286142496 a.u.                7.7863 eV
     Dipole Oscillator Strength                    0.0210629239
  Root   4         a              0.286142499 a.u.                7.7863 eV
     Dipole Oscillator Strength                    0.0210579910
  Root   5         a              0.299453075 a.u.                8.1485 eV
     Dipole Oscillator Strength                    0.1129719359
 Total times  cpu:       89.8s     wall:      106.0s
