 Output coordinates in angstroms (scale by  1.889725989 to convert to a.u.)

  No.       Tag          Charge          X              Y              Z
 ---- ---------------- ---------- -------------- -------------- --------------
    1 Br                  35.0000     0.00000000     0.00000000     0.00000000

         Total DFT energy =    -2573.788591390941
         Total DFT energy =    -2573.804903332530
         Total DFT energy =    -2573.805555190517
         Total DFT energy =    -2573.805688227616
         Total DFT energy =    -2573.805697045105
         Total DFT energy =    -2573.805697777653
         Total DFT energy =    -2573.805697777653

                    DFT Final Alpha Molecular Orbital Analysis
                    ------------------------------------------

 Vector    1  Occ=1.000000D+00  E=-4.812401D+02

 Vector   59  Occ=0.000000D+00  E= 2.066378D+00

 Vector   60  Occ=0.000000D+00  E= 2.066378D+00

 Vector   61  Occ=0.000000D+00  E= 2.319954D+00

 Vector   62  Occ=0.000000D+00  E= 2.349131D+00

 Vector   63  Occ=0.000000D+00  E= 2.349131D+00

 Vector   64  Occ=0.000000D+00  E= 4.348096D+00

 Vector   65  Occ=0.000000D+00  E= 4.425865D+00

 Vector   66  Occ=0.000000D+00  E= 4.463996D+00

 Vector   67  Occ=0.000000D+00  E= 4.463996D+00

 Vector   68  Occ=0.000000D+00  E= 9.295846D+00

 Vector   69  Occ=0.000000D+00  E= 7.777565D+01

 Vector    1  Occ=1.000000D+00  E=-4.812381D+02

 Vector    2  Occ=1.000000D+00  E=-6.202307D+01

 Vector    3  Occ=1.000000D+00  E=-5.593869D+01

 Vector    4  Occ=1.000000D+00  E=-5.593397D+01

 Vector    5  Occ=1.000000D+00  E=-5.593397D+01

 Vector    6  Occ=1.000000D+00  E=-8.609493D+00

 Vector    7  Occ=1.000000D+00  E=-6.488483D+00

 Vector    8  Occ=1.000000D+00  E=-6.471895D+00

 Vector    9  Occ=1.000000D+00  E=-6.471895D+00

 Vector   10  Occ=1.000000D+00  E=-2.684087D+00

 Vector   11  Occ=1.000000D+00  E=-2.680566D+00

 Vector   12  Occ=1.000000D+00  E=-2.680566D+00

 Vector   13  Occ=1.000000D+00  E=-2.669085D+00

 Vector   14  Occ=1.000000D+00  E=-2.669085D+00

 Vector   15  Occ=1.000000D+00  E=-8.438981D-01

 Vector   16  Occ=1.000000D+00  E=-4.018115D-01

 Vector   17  Occ=1.000000D+00  E=-4.018115D-01

 Vector   18  Occ=0.000000D+00  E=-1.419393D-01

 Vector   19  Occ=0.000000D+00  E= 6.068223D-02

 Vector   20  Occ=0.000000D+00  E= 8.482463D-02

 Vector   21  Occ=0.000000D+00  E= 8.647547D-02

 Vector   22  Occ=0.000000D+00  E= 8.647547D-02

 Vector   23  Occ=0.000000D+00  E= 2.425223D-01

 Vector   24  Occ=0.000000D+00  E= 2.425223D-01

 Vector   25  Occ=0.000000D+00  E= 2.454984D-01

 Vector   26  Occ=0.000000D+00  E= 2.454984D-01

 Vector   27  Occ=0.000000D+00  E= 2.486387D-01

 Vector   28  Occ=0.000000D+00  E= 2.893317D-01

 Vector   29  Occ=0.000000D+00  E= 3.615855D-01

 Vector   30  Occ=0.000000D+00  E= 3.635147D-01

 Vector   31  Occ=0.000000D+00  E= 3.635147D-01

 Vector   32  Occ=0.000000D+00  E= 6.683292D-01

 Vector   33  Occ=0.000000D+00  E= 6.683292D-01

 Vector   34  Occ=0.000000D+00  E= 6.713489D-01

 Vector   35  Occ=0.000000D+00  E= 6.713489D-01

 Vector   36  Occ=0.000000D+00  E= 6.793083D-01

 Vector   37  Occ=0.000000D+00  E= 8.559451D-01

 Vector   38  Occ=0.000000D+00  E= 8.559451D-01

 Vector   39  Occ=0.000000D+00  E= 8.563810D-01

 Vector   40  Occ=0.000000D+00  E= 8.563810D-01

 Vector   41  Occ=0.000000D+00  E= 8.586223D-01

 Vector   42  Occ=0.000000D+00  E= 8.586223D-01

 Vector   43  Occ=0.000000D+00  E= 8.604173D-01

 Vector   44  Occ=0.000000D+00  E= 9.278207D-01

 Vector   45  Occ=0.000000D+00  E= 1.011195D+00

 Vector   46  Occ=0.000000D+00  E= 1.013202D+00

 Vector   47  Occ=0.000000D+00  E= 1.013202D+00

 Vector   48  Occ=0.000000D+00  E= 1.624896D+00

 Vector   49  Occ=0.000000D+00  E= 2.014449D+00

 Vector   50  Occ=0.000000D+00  E= 2.014449D+00

 Vector   51  Occ=0.000000D+00  E= 2.016526D+00

 Vector   52  Occ=0.000000D+00  E= 2.016526D+00

 Vector   53  Occ=0.000000D+00  E= 2.017456D+00

 Vector   54  Occ=0.000000D+00  E= 2.066906D+00

 Vector   55  Occ=0.000000D+00  E= 2.066906D+00

 Vector   56  Occ=0.000000D+00  E= 2.068886D+00

 Vector   57  Occ=0.000000D+00  E= 2.068886D+00

 Vector   58  Occ=0.000000D+00  E= 2.070840D+00

 Vector   59  Occ=0.000000D+00  E= 2.070841D+00

 Vector   60  Occ=0.000000D+00  E= 2.075050D+00

 Vector   61  Occ=0.000000D+00  E= 2.352438D+00

 Vector   62  Occ=0.000000D+00  E= 2.355274D+00

 Vector   63  Occ=0.000000D+00  E= 2.355274D+00

 Vector   64  Occ=0.000000D+00  E= 4.364637D+00

 Vector   65  Occ=0.000000D+00  E= 4.468565D+00

 Vector   66  Occ=0.000000D+00  E= 4.472202D+00

 Vector   67  Occ=0.000000D+00  E= 4.472202D+00

 Vector   68  Occ=0.000000D+00  E= 9.315570D+00

 Vector   69  Occ=0.000000D+00  E= 7.777809D+01

  Root   1         a              0.000116267 a.u.                0.0032 eV
     Dipole Oscillator Strength                    0.0000000000
  Root   2         a              0.000116267 a.u.                0.0032 eV
     Dipole Oscillator Strength                    0.0000000000
  Root   3         a              0.287267613 a.u.                7.8170 eV
     Dipole Oscillator Strength                    0.0210255275
  Root   4         a              0.287267616 a.u.                7.8170 eV
     Dipole Oscillator Strength                    0.0210202330
  Root   5         a              0.300644973 a.u.                8.1810 eV
     Dipole Oscillator Strength                    0.1138291816
 Total times  cpu:       97.8s     wall:      112.9s
