 Output coordinates in angstroms (scale by  1.889725989 to convert to a.u.)

  No.       Tag          Charge          X              Y              Z
 ---- ---------------- ---------- -------------- -------------- --------------
    1 C                    6.0000     0.00000000     0.00000000     0.00000000

         Total DFT energy =      -37.758315520819
         Total DFT energy =      -37.813329632840
         Total DFT energy =      -37.817147873131
         Total DFT energy =      -37.817753186279
         Total DFT energy =      -37.817811748153
         Total DFT energy =      -37.817812373958
         Total DFT energy =      -37.817812373958

                    DFT Final Alpha Molecular Orbital Analysis
                    ------------------------------------------

 Vector    1  Occ=1.000000D+00  E=-1.025506D+01

 Vector   31  Occ=0.000000D+00  E= 1.043135D+00

 Vector   32  Occ=0.000000D+00  E= 1.043335D+00

 Vector   33  Occ=0.000000D+00  E= 1.043335D+00

 Vector   34  Occ=0.000000D+00  E= 1.049366D+00

 Vector   35  Occ=0.000000D+00  E= 1.820512D+00

 Vector   36  Occ=0.000000D+00  E= 2.778519D+00

 Vector   37  Occ=0.000000D+00  E= 2.778520D+00

 Vector   38  Occ=0.000000D+00  E= 2.787273D+00

 Vector   39  Occ=0.000000D+00  E= 3.146799D+00

 Vector   40  Occ=0.000000D+00  E= 3.146799D+00

 Vector   41  Occ=0.000000D+00  E= 3.150299D+00

 Vector   42  Occ=0.000000D+00  E= 3.150300D+00

 Vector   43  Occ=0.000000D+00  E= 3.163925D+00

 Vector   44  Occ=0.000000D+00  E= 3.238513D+00

 Vector   45  Occ=0.000000D+00  E= 3.238513D+00

 Vector   46  Occ=0.000000D+00  E= 3.240880D+00

 Vector   47  Occ=0.000000D+00  E= 3.240880D+00

 Vector   48  Occ=0.000000D+00  E= 3.244126D+00

 Vector   49  Occ=0.000000D+00  E= 3.244126D+00

 Vector   50  Occ=0.000000D+00  E= 3.245486D+00

 Vector   51  Occ=0.000000D+00  E= 5.694149D+00

 Vector   52  Occ=0.000000D+00  E= 6.991246D+00

 Vector   53  Occ=0.000000D+00  E= 6.991246D+00

 Vector   54  Occ=0.000000D+00  E= 6.991435D+00

 Vector   55  Occ=0.000000D+00  E= 8.164653D+00

 Vector    1  Occ=1.000000D+00  E=-1.022660D+01

 Vector    2  Occ=1.000000D+00  E=-6.030237D-01

 Vector    3  Occ=0.000000D+00  E=-1.963788D-02

 Vector    4  Occ=0.000000D+00  E= 2.490886D-02

 Vector    5  Occ=0.000000D+00  E= 2.490887D-02

 Vector    6  Occ=0.000000D+00  E= 6.893616D-02

 Vector    7  Occ=0.000000D+00  E= 9.902063D-02

 Vector    8  Occ=0.000000D+00  E= 1.155212D-01

 Vector    9  Occ=0.000000D+00  E= 1.155212D-01

 Vector   10  Occ=0.000000D+00  E= 3.002810D-01

 Vector   11  Occ=0.000000D+00  E= 3.071679D-01

 Vector   12  Occ=0.000000D+00  E= 3.071679D-01

 Vector   13  Occ=0.000000D+00  E= 3.120987D-01

 Vector   14  Occ=0.000000D+00  E= 3.165759D-01

 Vector   15  Occ=0.000000D+00  E= 3.165759D-01

 Vector   16  Occ=0.000000D+00  E= 4.074427D-01

 Vector   17  Occ=0.000000D+00  E= 4.306173D-01

 Vector   18  Occ=0.000000D+00  E= 4.306173D-01

 Vector   19  Occ=0.000000D+00  E= 9.984265D-01

 Vector   20  Occ=0.000000D+00  E= 1.009156D+00

 Vector   21  Occ=0.000000D+00  E= 1.009156D+00

 Vector   22  Occ=0.000000D+00  E= 1.040219D+00

 Vector   23  Occ=0.000000D+00  E= 1.040219D+00

 Vector   24  Occ=0.000000D+00  E= 1.049903D+00

 Vector   25  Occ=0.000000D+00  E= 1.052899D+00

 Vector   26  Occ=0.000000D+00  E= 1.059753D+00

 Vector   27  Occ=0.000000D+00  E= 1.059753D+00

 Vector   28  Occ=0.000000D+00  E= 1.069562D+00

 Vector   29  Occ=0.000000D+00  E= 1.069562D+00

 Vector   30  Occ=0.000000D+00  E= 1.075311D+00

 Vector   31  Occ=0.000000D+00  E= 1.083935D+00

 Vector   32  Occ=0.000000D+00  E= 1.083935D+00

 Vector   33  Occ=0.000000D+00  E= 1.105832D+00

 Vector   34  Occ=0.000000D+00  E= 1.105832D+00

 Vector   35  Occ=0.000000D+00  E= 1.839437D+00

 Vector   36  Occ=0.000000D+00  E= 2.811493D+00

 Vector   37  Occ=0.000000D+00  E= 2.858647D+00

 Vector   38  Occ=0.000000D+00  E= 2.858647D+00

 Vector   39  Occ=0.000000D+00  E= 3.218218D+00

 Vector   40  Occ=0.000000D+00  E= 3.236941D+00

 Vector   41  Occ=0.000000D+00  E= 3.236941D+00

 Vector   42  Occ=0.000000D+00  E= 3.286183D+00

 Vector   43  Occ=0.000000D+00  E= 3.286183D+00

 Vector   44  Occ=0.000000D+00  E= 3.292076D+00

 Vector   45  Occ=0.000000D+00  E= 3.299881D+00

 Vector   46  Occ=0.000000D+00  E= 3.299881D+00

 Vector   47  Occ=0.000000D+00  E= 3.320907D+00

 Vector   48  Occ=0.000000D+00  E= 3.320907D+00

 Vector   49  Occ=0.000000D+00  E= 3.355574D+00

 Vector   50  Occ=0.000000D+00  E= 3.355574D+00

 Vector   51  Occ=0.000000D+00  E= 5.748282D+00

 Vector   52  Occ=0.000000D+00  E= 7.015783D+00

 Vector   53  Occ=0.000000D+00  E= 7.056071D+00

 Vector   54  Occ=0.000000D+00  E= 7.056071D+00

 Vector   55  Occ=0.000000D+00  E= 8.233755D+00

  Root   1         a              0.000150143 a.u.                0.0041 eV
     Dipole Oscillator Strength                    0.0000000000
  Root   2         a              0.000164881 a.u.                0.0045 eV
     Dipole Oscillator Strength                    0.0000000000
  Root   3         a              0.270783987 a.u.                7.3684 eV
     Dipole Oscillator Strength                    0.0883539163
  Root   4         a              0.270784150 a.u.                7.3684 eV
     Dipole Oscillator Strength                    0.0883539653
  Root   5         a              0.312187025 a.u.                8.4950 eV
     Dipole Oscillator Strength                    0.0000000000
 Total times  cpu:       17.7s     wall:       21.2s
