 Output coordinates in angstroms (scale by  1.889725989 to convert to a.u.)

  No.       Tag          Charge          X              Y              Z
 ---- ---------------- ---------- -------------- -------------- --------------
    1 C                    6.0000     0.00000000     0.00000000     0.00000000

         Total DFT energy =      -37.757997988168
         Total DFT energy =      -37.812357179344
         Total DFT energy =      -37.816215064053
         Total DFT energy =      -37.816800596714
         Total DFT energy =      -37.816858021946
         Total DFT energy =      -37.816858587808
         Total DFT energy =      -37.816858587808

                    DFT Final Alpha Molecular Orbital Analysis
                    ------------------------------------------

 Vector    1  Occ=1.000000D+00  E=-1.024345D+01

 Vector   31  Occ=0.000000D+00  E= 1.038585D+00

 Vector   32  Occ=0.000000D+00  E= 1.039546D+00

 Vector   33  Occ=0.000000D+00  E= 1.039546D+00

 Vector   34  Occ=0.000000D+00  E= 1.045120D+00

 Vector   35  Occ=0.000000D+00  E= 1.818085D+00

 Vector   36  Occ=0.000000D+00  E= 2.769731D+00

 Vector   37  Occ=0.000000D+00  E= 2.769731D+00

 Vector   38  Occ=0.000000D+00  E= 2.779161D+00

 Vector   39  Occ=0.000000D+00  E= 3.137032D+00

 Vector   40  Occ=0.000000D+00  E= 3.137033D+00

 Vector   41  Occ=0.000000D+00  E= 3.140950D+00

 Vector   42  Occ=0.000000D+00  E= 3.140951D+00

 Vector   43  Occ=0.000000D+00  E= 3.155261D+00

 Vector   44  Occ=0.000000D+00  E= 3.229703D+00

 Vector   45  Occ=0.000000D+00  E= 3.229704D+00

 Vector   46  Occ=0.000000D+00  E= 3.232556D+00

 Vector   47  Occ=0.000000D+00  E= 3.232556D+00

 Vector   48  Occ=0.000000D+00  E= 3.234919D+00

 Vector   49  Occ=0.000000D+00  E= 3.234919D+00

 Vector   50  Occ=0.000000D+00  E= 3.237563D+00

 Vector   51  Occ=0.000000D+00  E= 5.685263D+00

 Vector   52  Occ=0.000000D+00  E= 6.984288D+00

 Vector   53  Occ=0.000000D+00  E= 6.984288D+00

 Vector   54  Occ=0.000000D+00  E= 6.985429D+00

 Vector   55  Occ=0.000000D+00  E= 8.155684D+00

 Vector    1  Occ=1.000000D+00  E=-1.021504D+01

 Vector    2  Occ=1.000000D+00  E=-5.987307D-01

 Vector    3  Occ=0.000000D+00  E=-2.347531D-02

 Vector    4  Occ=0.000000D+00  E= 2.205518D-02

 Vector    5  Occ=0.000000D+00  E= 2.205518D-02

 Vector    6  Occ=0.000000D+00  E= 6.882737D-02

 Vector    7  Occ=0.000000D+00  E= 9.804776D-02

 Vector    8  Occ=0.000000D+00  E= 1.138278D-01

 Vector    9  Occ=0.000000D+00  E= 1.138278D-01

 Vector   10  Occ=0.000000D+00  E= 2.996008D-01

 Vector   11  Occ=0.000000D+00  E= 3.065595D-01

 Vector   12  Occ=0.000000D+00  E= 3.065595D-01

 Vector   13  Occ=0.000000D+00  E= 3.113652D-01

 Vector   14  Occ=0.000000D+00  E= 3.159859D-01

 Vector   15  Occ=0.000000D+00  E= 3.159859D-01

 Vector   16  Occ=0.000000D+00  E= 4.051866D-01

 Vector   17  Occ=0.000000D+00  E= 4.281423D-01

 Vector   18  Occ=0.000000D+00  E= 4.281423D-01

 Vector   19  Occ=0.000000D+00  E= 9.939715D-01

 Vector   20  Occ=0.000000D+00  E= 1.004728D+00

 Vector   21  Occ=0.000000D+00  E= 1.004728D+00

 Vector   22  Occ=0.000000D+00  E= 1.035876D+00

 Vector   23  Occ=0.000000D+00  E= 1.035876D+00

 Vector   24  Occ=0.000000D+00  E= 1.046454D+00

 Vector   25  Occ=0.000000D+00  E= 1.050077D+00

 Vector   26  Occ=0.000000D+00  E= 1.057412D+00

 Vector   27  Occ=0.000000D+00  E= 1.057412D+00

 Vector   28  Occ=0.000000D+00  E= 1.067330D+00

 Vector   29  Occ=0.000000D+00  E= 1.067330D+00

 Vector   30  Occ=0.000000D+00  E= 1.071728D+00

 Vector   31  Occ=0.000000D+00  E= 1.081748D+00

 Vector   32  Occ=0.000000D+00  E= 1.081748D+00

 Vector   33  Occ=0.000000D+00  E= 1.101691D+00

 Vector   34  Occ=0.000000D+00  E= 1.101691D+00

 Vector   35  Occ=0.000000D+00  E= 1.837674D+00

 Vector   36  Occ=0.000000D+00  E= 2.803338D+00

 Vector   37  Occ=0.000000D+00  E= 2.850479D+00

 Vector   38  Occ=0.000000D+00  E= 2.850479D+00

 Vector   39  Occ=0.000000D+00  E= 3.209165D+00

 Vector   40  Occ=0.000000D+00  E= 3.227875D+00

 Vector   41  Occ=0.000000D+00  E= 3.227875D+00

 Vector   42  Occ=0.000000D+00  E= 3.277150D+00

 Vector   43  Occ=0.000000D+00  E= 3.277150D+00

 Vector   44  Occ=0.000000D+00  E= 3.284466D+00

 Vector   45  Occ=0.000000D+00  E= 3.292274D+00

 Vector   46  Occ=0.000000D+00  E= 3.292274D+00

 Vector   47  Occ=0.000000D+00  E= 3.313332D+00

 Vector   48  Occ=0.000000D+00  E= 3.313332D+00

 Vector   49  Occ=0.000000D+00  E= 3.348083D+00

 Vector   50  Occ=0.000000D+00  E= 3.348083D+00

 Vector   51  Occ=0.000000D+00  E= 5.740091D+00

 Vector   52  Occ=0.000000D+00  E= 7.010190D+00

 Vector   53  Occ=0.000000D+00  E= 7.050544D+00

 Vector   54  Occ=0.000000D+00  E= 7.050544D+00

 Vector   55  Occ=0.000000D+00  E= 8.225272D+00

  Root   1         a              0.000015744 a.u.                0.0004 eV
     Dipole Oscillator Strength                    0.0000000000
  Root   2         a              0.000127652 a.u.                0.0035 eV
     Dipole Oscillator Strength                    0.0000000000
  Root   3         a              0.266982192 a.u.                7.2650 eV
     Dipole Oscillator Strength                    0.0845119893
  Root   4         a              0.266982212 a.u.                7.2650 eV
     Dipole Oscillator Strength                    0.0845119692
  Root   5         a              0.307964789 a.u.                8.3802 eV
     Dipole Oscillator Strength                    0.0000000000
 Total times  cpu:       14.2s     wall:       17.1s
