 Output coordinates in angstroms (scale by  1.889725989 to convert to a.u.)

  No.       Tag          Charge          X              Y              Z
 ---- ---------------- ---------- -------------- -------------- --------------
    1 Cl                  17.0000     0.00000000     0.00000000     0.00000000

         Total DFT energy =     -459.988871144927
         Total DFT energy =     -460.000875357403
         Total DFT energy =     -460.001373720435
         Total DFT energy =     -460.001429450880
         Total DFT energy =     -460.001436992063
         Total DFT energy =     -460.001437217870
         Total DFT energy =     -460.001437217870

                    DFT Final Alpha Molecular Orbital Analysis
                    ------------------------------------------

 Vector    1  Occ=1.000000D+00  E=-1.009349D+02

 Vector   39  Occ=0.000000D+00  E= 2.196921D+00

 Vector   40  Occ=0.000000D+00  E= 2.207230D+00

 Vector   41  Occ=0.000000D+00  E= 2.207230D+00

 Vector   42  Occ=0.000000D+00  E= 2.242958D+00

 Vector   43  Occ=0.000000D+00  E= 2.242958D+00

 Vector   44  Occ=0.000000D+00  E= 2.729927D+00

 Vector   45  Occ=0.000000D+00  E= 2.736339D+00

 Vector   46  Occ=0.000000D+00  E= 2.736339D+00

 Vector   47  Occ=0.000000D+00  E= 2.755792D+00

 Vector   48  Occ=0.000000D+00  E= 2.755792D+00

 Vector   49  Occ=0.000000D+00  E= 2.788724D+00

 Vector   50  Occ=0.000000D+00  E= 2.788724D+00

 Vector   51  Occ=0.000000D+00  E= 2.866162D+00

 Vector   52  Occ=0.000000D+00  E= 2.902611D+00

 Vector   53  Occ=0.000000D+00  E= 2.902611D+00

 Vector   54  Occ=0.000000D+00  E= 3.378504D+00

 Vector   55  Occ=0.000000D+00  E= 5.469874D+00

 Vector   56  Occ=0.000000D+00  E= 5.600263D+00

 Vector   57  Occ=0.000000D+00  E= 5.639852D+00

 Vector   58  Occ=0.000000D+00  E= 5.639852D+00

 Vector   59  Occ=0.000000D+00  E= 8.859086D+00

 Vector    1  Occ=1.000000D+00  E=-1.009294D+02

 Vector    2  Occ=1.000000D+00  E=-9.410824D+00

 Vector    3  Occ=1.000000D+00  E=-7.233143D+00

 Vector    4  Occ=1.000000D+00  E=-7.221922D+00

 Vector    5  Occ=1.000000D+00  E=-7.221922D+00

 Vector    6  Occ=1.000000D+00  E=-9.019632D-01

 Vector    7  Occ=1.000000D+00  E=-4.450056D-01

 Vector    8  Occ=1.000000D+00  E=-4.450055D-01

 Vector    9  Occ=0.000000D+00  E=-1.440360D-01

 Vector   10  Occ=0.000000D+00  E= 8.598877D-02

 Vector   11  Occ=0.000000D+00  E= 1.032319D-01

 Vector   12  Occ=0.000000D+00  E= 1.041166D-01

 Vector   13  Occ=0.000000D+00  E= 1.041166D-01

 Vector   14  Occ=0.000000D+00  E= 3.103414D-01

 Vector   15  Occ=0.000000D+00  E= 3.103414D-01

 Vector   16  Occ=0.000000D+00  E= 3.148100D-01

 Vector   17  Occ=0.000000D+00  E= 3.148100D-01

 Vector   18  Occ=0.000000D+00  E= 3.194133D-01

 Vector   19  Occ=0.000000D+00  E= 4.081837D-01

 Vector   20  Occ=0.000000D+00  E= 4.432731D-01

 Vector   21  Occ=0.000000D+00  E= 4.436411D-01

 Vector   22  Occ=0.000000D+00  E= 4.436411D-01

 Vector   23  Occ=0.000000D+00  E= 7.961725D-01

 Vector   24  Occ=0.000000D+00  E= 7.961725D-01

 Vector   25  Occ=0.000000D+00  E= 7.988883D-01

 Vector   26  Occ=0.000000D+00  E= 7.988883D-01

 Vector   27  Occ=0.000000D+00  E= 8.089359D-01

 Vector   28  Occ=0.000000D+00  E= 1.084846D+00

 Vector   29  Occ=0.000000D+00  E= 1.084846D+00

 Vector   30  Occ=0.000000D+00  E= 1.085904D+00

 Vector   31  Occ=0.000000D+00  E= 1.085904D+00

 Vector   32  Occ=0.000000D+00  E= 1.087175D+00

 Vector   33  Occ=0.000000D+00  E= 1.087175D+00

 Vector   34  Occ=0.000000D+00  E= 1.089081D+00

 Vector   35  Occ=0.000000D+00  E= 1.222857D+00

 Vector   36  Occ=0.000000D+00  E= 1.222857D+00

 Vector   37  Occ=0.000000D+00  E= 1.223635D+00

 Vector   38  Occ=0.000000D+00  E= 1.373851D+00

 Vector   39  Occ=0.000000D+00  E= 2.248064D+00

 Vector   40  Occ=0.000000D+00  E= 2.248064D+00

 Vector   41  Occ=0.000000D+00  E= 2.248824D+00

 Vector   42  Occ=0.000000D+00  E= 2.248824D+00

 Vector   43  Occ=0.000000D+00  E= 2.255940D+00

 Vector   44  Occ=0.000000D+00  E= 2.789190D+00

 Vector   45  Occ=0.000000D+00  E= 2.789190D+00

 Vector   46  Occ=0.000000D+00  E= 2.790879D+00

 Vector   47  Occ=0.000000D+00  E= 2.790879D+00

 Vector   48  Occ=0.000000D+00  E= 2.795012D+00

 Vector   49  Occ=0.000000D+00  E= 2.795012D+00

 Vector   50  Occ=0.000000D+00  E= 2.801832D+00

 Vector   51  Occ=0.000000D+00  E= 2.910749D+00

 Vector   52  Occ=0.000000D+00  E= 2.910749D+00

 Vector   53  Occ=0.000000D+00  E= 2.911788D+00

 Vector   54  Occ=0.000000D+00  E= 3.388582D+00

 Vector   55  Occ=0.000000D+00  E= 5.486853D+00

 Vector   56  Occ=0.000000D+00  E= 5.644409D+00

 Vector   57  Occ=0.000000D+00  E= 5.647720D+00

 Vector   58  Occ=0.000000D+00  E= 5.647720D+00

 Vector   59  Occ=0.000000D+00  E= 8.881882D+00

  Root   1         a              0.000147238 a.u.                0.0040 eV
     Dipole Oscillator Strength                    0.0000000000
  Root   2         a              0.000149273 a.u.                0.0041 eV
     Dipole Oscillator Strength                    0.0000000000
  Root   3         a              0.332331400 a.u.                9.0432 eV
     Dipole Oscillator Strength                    0.0201307990
  Root   4         a              0.332331406 a.u.                9.0432 eV
     Dipole Oscillator Strength                    0.0201322288
  Root   5         a              0.347487179 a.u.                9.4556 eV
     Dipole Oscillator Strength                    0.1117281386
 Total times  cpu:       21.2s     wall:       25.6s
