 Output coordinates in angstroms (scale by  1.889725989 to convert to a.u.)

  No.       Tag          Charge          X              Y              Z
 ---- ---------------- ---------- -------------- -------------- --------------
    1 Cl                  17.0000     0.00000000     0.00000000     0.00000000

         Total DFT energy =     -459.990270180941
         Total DFT energy =     -460.002340598709
         Total DFT energy =     -460.002839627178
         Total DFT energy =     -460.002894670523
         Total DFT energy =     -460.002902352571
         Total DFT energy =     -460.002902578037
         Total DFT energy =     -460.002902578037

                    DFT Final Alpha Molecular Orbital Analysis
                    ------------------------------------------

 Vector    1  Occ=1.000000D+00  E=-1.009401D+02

 Vector   39  Occ=0.000000D+00  E= 2.200988D+00

 Vector   40  Occ=0.000000D+00  E= 2.211311D+00

 Vector   41  Occ=0.000000D+00  E= 2.211311D+00

 Vector   42  Occ=0.000000D+00  E= 2.247075D+00

 Vector   43  Occ=0.000000D+00  E= 2.247075D+00

 Vector   44  Occ=0.000000D+00  E= 2.734159D+00

 Vector   45  Occ=0.000000D+00  E= 2.740577D+00

 Vector   46  Occ=0.000000D+00  E= 2.740577D+00

 Vector   47  Occ=0.000000D+00  E= 2.760047D+00

 Vector   48  Occ=0.000000D+00  E= 2.760047D+00

 Vector   49  Occ=0.000000D+00  E= 2.792999D+00

 Vector   50  Occ=0.000000D+00  E= 2.792999D+00

 Vector   51  Occ=0.000000D+00  E= 2.869387D+00

 Vector   52  Occ=0.000000D+00  E= 2.905865D+00

 Vector   53  Occ=0.000000D+00  E= 2.905865D+00

 Vector   54  Occ=0.000000D+00  E= 3.380046D+00

 Vector   55  Occ=0.000000D+00  E= 5.473186D+00

 Vector   56  Occ=0.000000D+00  E= 5.603929D+00

 Vector   57  Occ=0.000000D+00  E= 5.643555D+00

 Vector   58  Occ=0.000000D+00  E= 5.643555D+00

 Vector   59  Occ=0.000000D+00  E= 8.863891D+00

 Vector    1  Occ=1.000000D+00  E=-1.009346D+02

 Vector    2  Occ=1.000000D+00  E=-9.416252D+00

 Vector    3  Occ=1.000000D+00  E=-7.238324D+00

 Vector    4  Occ=1.000000D+00  E=-7.227079D+00

 Vector    5  Occ=1.000000D+00  E=-7.227079D+00

 Vector    6  Occ=1.000000D+00  E=-9.061727D-01

 Vector    7  Occ=1.000000D+00  E=-4.477172D-01

 Vector    8  Occ=1.000000D+00  E=-4.477172D-01

 Vector    9  Occ=0.000000D+00  E=-1.415777D-01

 Vector   10  Occ=0.000000D+00  E= 8.630483D-02

 Vector   11  Occ=0.000000D+00  E= 1.034837D-01

 Vector   12  Occ=0.000000D+00  E= 1.042322D-01

 Vector   13  Occ=0.000000D+00  E= 1.042322D-01

 Vector   14  Occ=0.000000D+00  E= 3.114782D-01

 Vector   15  Occ=0.000000D+00  E= 3.114782D-01

 Vector   16  Occ=0.000000D+00  E= 3.160913D-01

 Vector   17  Occ=0.000000D+00  E= 3.160913D-01

 Vector   18  Occ=0.000000D+00  E= 3.206566D-01

 Vector   19  Occ=0.000000D+00  E= 4.092670D-01

 Vector   20  Occ=0.000000D+00  E= 4.443785D-01

 Vector   21  Occ=0.000000D+00  E= 4.446025D-01

 Vector   22  Occ=0.000000D+00  E= 4.446025D-01

 Vector   23  Occ=0.000000D+00  E= 7.988601D-01

 Vector   24  Occ=0.000000D+00  E= 7.988601D-01

 Vector   25  Occ=0.000000D+00  E= 8.016822D-01

 Vector   26  Occ=0.000000D+00  E= 8.016822D-01

 Vector   27  Occ=0.000000D+00  E= 8.116797D-01

 Vector   28  Occ=0.000000D+00  E= 1.087304D+00

 Vector   29  Occ=0.000000D+00  E= 1.087304D+00

 Vector   30  Occ=0.000000D+00  E= 1.088499D+00

 Vector   31  Occ=0.000000D+00  E= 1.088499D+00

 Vector   32  Occ=0.000000D+00  E= 1.089483D+00

 Vector   33  Occ=0.000000D+00  E= 1.089483D+00

 Vector   34  Occ=0.000000D+00  E= 1.091293D+00

 Vector   35  Occ=0.000000D+00  E= 1.225114D+00

 Vector   36  Occ=0.000000D+00  E= 1.225114D+00

 Vector   37  Occ=0.000000D+00  E= 1.225747D+00

 Vector   38  Occ=0.000000D+00  E= 1.376444D+00

 Vector   39  Occ=0.000000D+00  E= 2.252204D+00

 Vector   40  Occ=0.000000D+00  E= 2.252204D+00

 Vector   41  Occ=0.000000D+00  E= 2.252786D+00

 Vector   42  Occ=0.000000D+00  E= 2.252786D+00

 Vector   43  Occ=0.000000D+00  E= 2.259771D+00

 Vector   44  Occ=0.000000D+00  E= 2.793309D+00

 Vector   45  Occ=0.000000D+00  E= 2.793309D+00

 Vector   46  Occ=0.000000D+00  E= 2.795183D+00

 Vector   47  Occ=0.000000D+00  E= 2.795183D+00

 Vector   48  Occ=0.000000D+00  E= 2.798923D+00

 Vector   49  Occ=0.000000D+00  E= 2.798923D+00

 Vector   50  Occ=0.000000D+00  E= 2.805623D+00

 Vector   51  Occ=0.000000D+00  E= 2.913976D+00

 Vector   52  Occ=0.000000D+00  E= 2.913976D+00

 Vector   53  Occ=0.000000D+00  E= 2.914730D+00

 Vector   54  Occ=0.000000D+00  E= 3.390009D+00

 Vector   55  Occ=0.000000D+00  E= 5.490046D+00

 Vector   56  Occ=0.000000D+00  E= 5.647788D+00

 Vector   57  Occ=0.000000D+00  E= 5.651406D+00

 Vector   58  Occ=0.000000D+00  E= 5.651406D+00

 Vector   59  Occ=0.000000D+00  E= 8.886573D+00

  Root   1         a              0.000146614 a.u.                0.0040 eV
     Dipole Oscillator Strength                    0.0000000000
  Root   2         a              0.000149846 a.u.                0.0041 eV
     Dipole Oscillator Strength                    0.0000000000
  Root   3         a              0.333952161 a.u.                9.0873 eV
     Dipole Oscillator Strength                    0.0201145353
  Root   4         a              0.333952168 a.u.                9.0873 eV
     Dipole Oscillator Strength                    0.0201158804
  Root   5         a              0.349193535 a.u.                9.5020 eV
     Dipole Oscillator Strength                    0.1126459225
 Total times  cpu:       26.5s     wall:       31.4s
