 Output coordinates in angstroms (scale by  1.889725989 to convert to a.u.)

  No.       Tag          Charge          X              Y              Z
 ---- ---------------- ---------- -------------- -------------- --------------
    1 Ga                  31.0000     0.00000000     0.00000000     0.00000000

         Total DFT energy =    -1924.526208327518
         Total DFT energy =    -1924.560800196198
         Total DFT energy =    -1924.565021386464
         Total DFT energy =    -1924.567212714200
         Total DFT energy =    -1924.567558408976
         Total DFT energy =    -1924.567574336035
         Total DFT energy =    -1924.567574507015
         Total DFT energy =    -1924.567574507015

                    DFT Final Alpha Molecular Orbital Analysis
                    ------------------------------------------

 Vector    1  Occ=1.000000D+00  E=-3.711012D+02

 Vector   59  Occ=0.000000D+00  E= 1.100706D+00

 Vector   60  Occ=0.000000D+00  E= 1.100706D+00

 Vector   61  Occ=0.000000D+00  E= 1.526860D+00

 Vector   62  Occ=0.000000D+00  E= 1.526860D+00

 Vector   63  Occ=0.000000D+00  E= 1.529674D+00

 Vector   64  Occ=0.000000D+00  E= 2.011510D+00

 Vector   65  Occ=0.000000D+00  E= 5.829451D+00

 Vector   66  Occ=0.000000D+00  E= 5.894216D+00

 Vector   67  Occ=0.000000D+00  E= 5.894216D+00

 Vector   68  Occ=0.000000D+00  E= 5.897974D+00

 Vector   69  Occ=0.000000D+00  E= 4.232646D+01

 Vector    1  Occ=1.000000D+00  E=-3.711006D+02

 Vector    2  Occ=1.000000D+00  E=-4.548573D+01

 Vector    3  Occ=1.000000D+00  E=-4.032936D+01

 Vector    4  Occ=1.000000D+00  E=-4.032936D+01

 Vector    5  Occ=1.000000D+00  E=-4.032607D+01

 Vector    6  Occ=1.000000D+00  E=-5.408864D+00

 Vector    7  Occ=1.000000D+00  E=-3.736643D+00

 Vector    8  Occ=1.000000D+00  E=-3.736643D+00

 Vector    9  Occ=1.000000D+00  E=-3.725350D+00

 Vector   10  Occ=1.000000D+00  E=-8.673115D-01

 Vector   11  Occ=1.000000D+00  E=-8.673115D-01

 Vector   12  Occ=1.000000D+00  E=-8.574384D-01

 Vector   13  Occ=1.000000D+00  E=-8.574384D-01

 Vector   14  Occ=1.000000D+00  E=-8.542716D-01

 Vector   15  Occ=1.000000D+00  E=-4.052085D-01

 Vector   16  Occ=0.000000D+00  E=-3.116072D-03

 Vector   17  Occ=0.000000D+00  E=-3.116072D-03

 Vector   18  Occ=0.000000D+00  E= 1.734920D-02

 Vector   19  Occ=0.000000D+00  E= 2.106165D-02

 Vector   20  Occ=0.000000D+00  E= 5.434834D-02

 Vector   21  Occ=0.000000D+00  E= 5.434834D-02

 Vector   22  Occ=0.000000D+00  E= 6.463114D-02

 Vector   23  Occ=0.000000D+00  E= 9.729576D-02

 Vector   24  Occ=0.000000D+00  E= 1.124072D-01

 Vector   25  Occ=0.000000D+00  E= 1.124072D-01

 Vector   26  Occ=0.000000D+00  E= 1.192077D-01

 Vector   27  Occ=0.000000D+00  E= 1.192077D-01

 Vector   28  Occ=0.000000D+00  E= 1.225450D-01

 Vector   29  Occ=0.000000D+00  E= 1.986081D-01

 Vector   30  Occ=0.000000D+00  E= 1.986081D-01

 Vector   31  Occ=0.000000D+00  E= 2.119365D-01

 Vector   32  Occ=0.000000D+00  E= 2.803102D-01

 Vector   33  Occ=0.000000D+00  E= 3.503543D-01

 Vector   34  Occ=0.000000D+00  E= 3.503543D-01

 Vector   35  Occ=0.000000D+00  E= 3.658653D-01

 Vector   36  Occ=0.000000D+00  E= 3.658653D-01

 Vector   37  Occ=0.000000D+00  E= 3.724378D-01

 Vector   38  Occ=0.000000D+00  E= 3.744956D-01

 Vector   39  Occ=0.000000D+00  E= 3.744956D-01

 Vector   40  Occ=0.000000D+00  E= 3.824806D-01

 Vector   41  Occ=0.000000D+00  E= 3.824806D-01

 Vector   42  Occ=0.000000D+00  E= 3.876942D-01

 Vector   43  Occ=0.000000D+00  E= 3.876942D-01

 Vector   44  Occ=0.000000D+00  E= 3.895242D-01

 Vector   45  Occ=0.000000D+00  E= 4.801055D-01

 Vector   46  Occ=0.000000D+00  E= 4.801055D-01

 Vector   47  Occ=0.000000D+00  E= 4.969501D-01

 Vector   48  Occ=0.000000D+00  E= 6.707053D-01

 Vector   49  Occ=0.000000D+00  E= 1.070113D+00

 Vector   50  Occ=0.000000D+00  E= 1.070113D+00

 Vector   51  Occ=0.000000D+00  E= 1.090647D+00

 Vector   52  Occ=0.000000D+00  E= 1.090647D+00

 Vector   53  Occ=0.000000D+00  E= 1.098190D+00

 Vector   54  Occ=0.000000D+00  E= 1.103189D+00

 Vector   55  Occ=0.000000D+00  E= 1.103189D+00

 Vector   56  Occ=0.000000D+00  E= 1.121688D+00

 Vector   57  Occ=0.000000D+00  E= 1.121688D+00

 Vector   58  Occ=0.000000D+00  E= 1.133757D+00

 Vector   59  Occ=0.000000D+00  E= 1.133757D+00

 Vector   60  Occ=0.000000D+00  E= 1.137638D+00

 Vector   61  Occ=0.000000D+00  E= 1.534680D+00

 Vector   62  Occ=0.000000D+00  E= 1.534680D+00

 Vector   63  Occ=0.000000D+00  E= 1.561609D+00

 Vector   64  Occ=0.000000D+00  E= 2.026966D+00

 Vector   65  Occ=0.000000D+00  E= 5.838288D+00

 Vector   66  Occ=0.000000D+00  E= 5.902123D+00

 Vector   67  Occ=0.000000D+00  E= 5.902123D+00

 Vector   68  Occ=0.000000D+00  E= 5.933248D+00

 Vector   69  Occ=0.000000D+00  E= 4.233027D+01

  Root   1         a              0.000141241 a.u.                0.0038 eV
     Dipole Oscillator Strength                    0.0000000000
  Root   2         a              0.000141250 a.u.                0.0038 eV
     Dipole Oscillator Strength                    0.0000000000
  Root   3         a              0.105670305 a.u.                2.8754 eV
     Dipole Oscillator Strength                    0.1302951919
  Root   4         a              0.142152521 a.u.                3.8682 eV
     Dipole Oscillator Strength                    0.0000000000
  Root   5         a              0.142152558 a.u.                3.8682 eV
     Dipole Oscillator Strength                    0.0000000000
 Total times  cpu:       85.0s     wall:       96.6s
