 Output coordinates in angstroms (scale by  1.889725989 to convert to a.u.)

  No.       Tag          Charge          X              Y              Z
 ---- ---------------- ---------- -------------- -------------- --------------
    1 Ga                  31.0000     0.00000000     0.00000000     0.00000000

         Total DFT energy =    -1924.525175922956
         Total DFT energy =    -1924.559624895443
         Total DFT energy =    -1924.563749262352
         Total DFT energy =    -1924.565990231490
         Total DFT energy =    -1924.566315961056
         Total DFT energy =    -1924.566331514547
         Total DFT energy =    -1924.566331666318
         Total DFT energy =    -1924.566331666318

                    DFT Final Alpha Molecular Orbital Analysis
                    ------------------------------------------

 Vector    1  Occ=1.000000D+00  E=-3.710945D+02

 Vector   59  Occ=0.000000D+00  E= 1.096380D+00

 Vector   60  Occ=0.000000D+00  E= 1.096380D+00

 Vector   61  Occ=0.000000D+00  E= 1.521635D+00

 Vector   62  Occ=0.000000D+00  E= 1.521635D+00

 Vector   63  Occ=0.000000D+00  E= 1.524000D+00

 Vector   64  Occ=0.000000D+00  E= 2.006235D+00

 Vector   65  Occ=0.000000D+00  E= 5.823875D+00

 Vector   66  Occ=0.000000D+00  E= 5.888475D+00

 Vector   67  Occ=0.000000D+00  E= 5.888475D+00

 Vector   68  Occ=0.000000D+00  E= 5.891805D+00

 Vector   69  Occ=0.000000D+00  E= 4.232039D+01

 Vector    1  Occ=1.000000D+00  E=-3.710939D+02

 Vector    2  Occ=1.000000D+00  E=-4.547909D+01

 Vector    3  Occ=1.000000D+00  E=-4.032274D+01

 Vector    4  Occ=1.000000D+00  E=-4.032274D+01

 Vector    5  Occ=1.000000D+00  E=-4.031946D+01

 Vector    6  Occ=1.000000D+00  E=-5.401874D+00

 Vector    7  Occ=1.000000D+00  E=-3.729666D+00

 Vector    8  Occ=1.000000D+00  E=-3.729666D+00

 Vector    9  Occ=1.000000D+00  E=-3.718431D+00

 Vector   10  Occ=1.000000D+00  E=-8.610137D-01

 Vector   11  Occ=1.000000D+00  E=-8.610137D-01

 Vector   12  Occ=1.000000D+00  E=-8.511825D-01

 Vector   13  Occ=1.000000D+00  E=-8.511825D-01

 Vector   14  Occ=1.000000D+00  E=-8.480291D-01

 Vector   15  Occ=1.000000D+00  E=-4.022538D-01

 Vector   16  Occ=0.000000D+00  E=-4.821926D-03

 Vector   17  Occ=0.000000D+00  E=-4.821926D-03

 Vector   18  Occ=0.000000D+00  E= 1.598688D-02

 Vector   19  Occ=0.000000D+00  E= 2.099087D-02

 Vector   20  Occ=0.000000D+00  E= 5.377121D-02

 Vector   21  Occ=0.000000D+00  E= 5.377121D-02

 Vector   22  Occ=0.000000D+00  E= 6.370147D-02

 Vector   23  Occ=0.000000D+00  E= 9.692773D-02

 Vector   24  Occ=0.000000D+00  E= 1.120133D-01

 Vector   25  Occ=0.000000D+00  E= 1.120133D-01

 Vector   26  Occ=0.000000D+00  E= 1.188228D-01

 Vector   27  Occ=0.000000D+00  E= 1.188228D-01

 Vector   28  Occ=0.000000D+00  E= 1.221626D-01

 Vector   29  Occ=0.000000D+00  E= 1.975748D-01

 Vector   30  Occ=0.000000D+00  E= 1.975748D-01

 Vector   31  Occ=0.000000D+00  E= 2.107771D-01

 Vector   32  Occ=0.000000D+00  E= 2.792682D-01

 Vector   33  Occ=0.000000D+00  E= 3.477565D-01

 Vector   34  Occ=0.000000D+00  E= 3.477565D-01

 Vector   35  Occ=0.000000D+00  E= 3.632394D-01

 Vector   36  Occ=0.000000D+00  E= 3.632394D-01

 Vector   37  Occ=0.000000D+00  E= 3.698013D-01

 Vector   38  Occ=0.000000D+00  E= 3.731094D-01

 Vector   39  Occ=0.000000D+00  E= 3.731094D-01

 Vector   40  Occ=0.000000D+00  E= 3.810934D-01

 Vector   41  Occ=0.000000D+00  E= 3.810934D-01

 Vector   42  Occ=0.000000D+00  E= 3.863029D-01

 Vector   43  Occ=0.000000D+00  E= 3.863029D-01

 Vector   44  Occ=0.000000D+00  E= 3.881323D-01

 Vector   45  Occ=0.000000D+00  E= 4.779673D-01

 Vector   46  Occ=0.000000D+00  E= 4.779673D-01

 Vector   47  Occ=0.000000D+00  E= 4.946828D-01

 Vector   48  Occ=0.000000D+00  E= 6.682109D-01

 Vector   49  Occ=0.000000D+00  E= 1.065196D+00

 Vector   50  Occ=0.000000D+00  E= 1.065196D+00

 Vector   51  Occ=0.000000D+00  E= 1.085633D+00

 Vector   52  Occ=0.000000D+00  E= 1.085633D+00

 Vector   53  Occ=0.000000D+00  E= 1.093137D+00

 Vector   54  Occ=0.000000D+00  E= 1.098875D+00

 Vector   55  Occ=0.000000D+00  E= 1.098875D+00

 Vector   56  Occ=0.000000D+00  E= 1.117307D+00

 Vector   57  Occ=0.000000D+00  E= 1.117307D+00

 Vector   58  Occ=0.000000D+00  E= 1.129327D+00

 Vector   59  Occ=0.000000D+00  E= 1.129327D+00

 Vector   60  Occ=0.000000D+00  E= 1.133194D+00

 Vector   61  Occ=0.000000D+00  E= 1.529582D+00

 Vector   62  Occ=0.000000D+00  E= 1.529582D+00

 Vector   63  Occ=0.000000D+00  E= 1.556430D+00

 Vector   64  Occ=0.000000D+00  E= 2.021934D+00

 Vector   65  Occ=0.000000D+00  E= 5.832843D+00

 Vector   66  Occ=0.000000D+00  E= 5.896476D+00

 Vector   67  Occ=0.000000D+00  E= 5.896476D+00

 Vector   68  Occ=0.000000D+00  E= 5.927495D+00

 Vector   69  Occ=0.000000D+00  E= 4.232432D+01

  Root   1         a              0.000136794 a.u.                0.0037 eV
     Dipole Oscillator Strength                    0.0000000000
  Root   2         a              0.000136795 a.u.                0.0037 eV
     Dipole Oscillator Strength                    0.0000000000
  Root   3         a              0.104048494 a.u.                2.8313 eV
     Dipole Oscillator Strength                    0.1280145131
  Root   4         a              0.140020106 a.u.                3.8101 eV
     Dipole Oscillator Strength                    0.0000000001
  Root   5         a              0.140020108 a.u.                3.8101 eV
     Dipole Oscillator Strength                    0.0000000000
 Total times  cpu:       78.3s     wall:       91.0s
