 Output coordinates in angstroms (scale by  1.889725989 to convert to a.u.)

  No.       Tag          Charge          X              Y              Z
 ---- ---------------- ---------- -------------- -------------- --------------
    1 Ge                  32.0000     0.00000000     0.00000000     0.00000000

         Total DFT energy =    -2076.624505532145
         Total DFT energy =    -2076.659134651883
         Total DFT energy =    -2076.660924403044
         Total DFT energy =    -2076.661691813376
         Total DFT energy =    -2076.661766478057
         Total DFT energy =    -2076.661769888819
         Total DFT energy =    -2076.661769914143
         Total DFT energy =    -2076.661769914143

                    DFT Final Alpha Molecular Orbital Analysis
                    ------------------------------------------

 Vector    1  Occ=1.000000D+00  E=-3.972419D+02

 Vector   59  Occ=0.000000D+00  E= 1.290591D+00

 Vector   60  Occ=0.000000D+00  E= 1.293208D+00

 Vector   61  Occ=0.000000D+00  E= 1.760096D+00

 Vector   62  Occ=0.000000D+00  E= 1.768161D+00

 Vector   63  Occ=0.000000D+00  E= 1.768161D+00

 Vector   64  Occ=0.000000D+00  E= 2.567092D+00

 Vector   65  Occ=0.000000D+00  E= 2.965110D+00

 Vector   66  Occ=0.000000D+00  E= 2.967496D+00

 Vector   67  Occ=0.000000D+00  E= 2.967496D+00

 Vector   68  Occ=0.000000D+00  E= 5.536495D+00

 Vector   69  Occ=0.000000D+00  E= 6.361808D+01

 Vector    1  Occ=1.000000D+00  E=-3.972401D+02

 Vector    2  Occ=1.000000D+00  E=-4.933334D+01

 Vector    3  Occ=1.000000D+00  E=-4.394941D+01

 Vector    4  Occ=1.000000D+00  E=-4.394483D+01

 Vector    5  Occ=1.000000D+00  E=-4.394483D+01

 Vector    6  Occ=1.000000D+00  E=-6.126437D+00

 Vector    7  Occ=1.000000D+00  E=-4.349893D+00

 Vector    8  Occ=1.000000D+00  E=-4.335198D+00

 Vector    9  Occ=1.000000D+00  E=-4.335198D+00

 Vector   10  Occ=1.000000D+00  E=-1.246920D+00

 Vector   11  Occ=1.000000D+00  E=-1.242806D+00

 Vector   12  Occ=1.000000D+00  E=-1.242806D+00

 Vector   13  Occ=1.000000D+00  E=-1.230733D+00

 Vector   14  Occ=1.000000D+00  E=-1.230733D+00

 Vector   15  Occ=1.000000D+00  E=-4.897540D-01

 Vector   16  Occ=0.000000D+00  E=-3.450909D-02

 Vector   17  Occ=0.000000D+00  E=-4.289301D-03

 Vector   18  Occ=0.000000D+00  E=-4.289301D-03

 Vector   19  Occ=0.000000D+00  E= 3.502463D-02

 Vector   20  Occ=0.000000D+00  E= 5.579285D-02

 Vector   21  Occ=0.000000D+00  E= 6.375488D-02

 Vector   22  Occ=0.000000D+00  E= 6.375488D-02

 Vector   23  Occ=0.000000D+00  E= 1.449116D-01

 Vector   24  Occ=0.000000D+00  E= 1.507207D-01

 Vector   25  Occ=0.000000D+00  E= 1.507207D-01

 Vector   26  Occ=0.000000D+00  E= 1.570341D-01

 Vector   27  Occ=0.000000D+00  E= 1.592986D-01

 Vector   28  Occ=0.000000D+00  E= 1.592986D-01

 Vector   29  Occ=0.000000D+00  E= 2.277619D-01

 Vector   30  Occ=0.000000D+00  E= 2.422969D-01

 Vector   31  Occ=0.000000D+00  E= 2.422969D-01

 Vector   32  Occ=0.000000D+00  E= 4.329012D-01

 Vector   33  Occ=0.000000D+00  E= 4.409723D-01

 Vector   34  Occ=0.000000D+00  E= 4.409723D-01

 Vector   35  Occ=0.000000D+00  E= 4.485231D-01

 Vector   36  Occ=0.000000D+00  E= 4.614207D-01

 Vector   37  Occ=0.000000D+00  E= 4.614207D-01

 Vector   38  Occ=0.000000D+00  E= 4.893827D-01

 Vector   39  Occ=0.000000D+00  E= 4.913404D-01

 Vector   40  Occ=0.000000D+00  E= 4.913404D-01

 Vector   41  Occ=0.000000D+00  E= 4.976240D-01

 Vector   42  Occ=0.000000D+00  E= 4.976240D-01

 Vector   43  Occ=0.000000D+00  E= 5.087300D-01

 Vector   44  Occ=0.000000D+00  E= 5.087301D-01

 Vector   45  Occ=0.000000D+00  E= 6.108839D-01

 Vector   46  Occ=0.000000D+00  E= 6.316484D-01

 Vector   47  Occ=0.000000D+00  E= 6.316484D-01

 Vector   48  Occ=0.000000D+00  E= 8.296426D-01

 Vector   49  Occ=0.000000D+00  E= 1.303446D+00

 Vector   50  Occ=0.000000D+00  E= 1.310669D+00

 Vector   51  Occ=0.000000D+00  E= 1.310669D+00

 Vector   52  Occ=0.000000D+00  E= 1.327824D+00

 Vector   53  Occ=0.000000D+00  E= 1.331774D+00

 Vector   54  Occ=0.000000D+00  E= 1.331774D+00

 Vector   55  Occ=0.000000D+00  E= 1.334714D+00

 Vector   56  Occ=0.000000D+00  E= 1.334714D+00

 Vector   57  Occ=0.000000D+00  E= 1.344643D+00

 Vector   58  Occ=0.000000D+00  E= 1.344643D+00

 Vector   59  Occ=0.000000D+00  E= 1.366920D+00

 Vector   60  Occ=0.000000D+00  E= 1.366920D+00

 Vector   61  Occ=0.000000D+00  E= 1.772215D+00

 Vector   62  Occ=0.000000D+00  E= 1.796761D+00

 Vector   63  Occ=0.000000D+00  E= 1.796761D+00

 Vector   64  Occ=0.000000D+00  E= 2.595913D+00

 Vector   65  Occ=0.000000D+00  E= 2.981427D+00

 Vector   66  Occ=0.000000D+00  E= 3.006224D+00

 Vector   67  Occ=0.000000D+00  E= 3.006224D+00

 Vector   68  Occ=0.000000D+00  E= 5.569288D+00

 Vector   69  Occ=0.000000D+00  E= 6.362354D+01

  Root   1         a              0.000021728 a.u.                0.0006 eV
     Dipole Oscillator Strength                    0.0000000000
  Root   2         a              0.000021739 a.u.                0.0006 eV
     Dipole Oscillator Strength                    0.0000000000
  Root   3         a              0.160579978 a.u.                4.3696 eV
     Dipole Oscillator Strength                    0.1083832085
  Root   4         a              0.160579978 a.u.                4.3696 eV
     Dipole Oscillator Strength                    0.1083831854
  Root   5         a              0.197974747 a.u.                5.3872 eV
     Dipole Oscillator Strength                    0.0000000000
 Total times  cpu:       79.9s     wall:       93.3s
