 Output coordinates in angstroms (scale by  1.889725989 to convert to a.u.)

  No.       Tag          Charge          X              Y              Z
 ---- ---------------- ---------- -------------- -------------- --------------
    1 Ge                  32.0000     0.00000000     0.00000000     0.00000000

         Total DFT energy =    -2076.625672809864
         Total DFT energy =    -2076.660464709864
         Total DFT energy =    -2076.662307730113
         Total DFT energy =    -2076.663065761452
         Total DFT energy =    -2076.663144477977
         Total DFT energy =    -2076.663147938451
         Total DFT energy =    -2076.663147965536
         Total DFT energy =    -2076.663147965536

                    DFT Final Alpha Molecular Orbital Analysis
                    ------------------------------------------

 Vector    1  Occ=1.000000D+00  E=-3.972472D+02

 Vector   59  Occ=0.000000D+00  E= 1.294589D+00

 Vector   60  Occ=0.000000D+00  E= 1.296850D+00

 Vector   61  Occ=0.000000D+00  E= 1.763737D+00

 Vector   62  Occ=0.000000D+00  E= 1.772027D+00

 Vector   63  Occ=0.000000D+00  E= 1.772027D+00

 Vector   64  Occ=0.000000D+00  E= 2.571655D+00

 Vector   65  Occ=0.000000D+00  E= 2.967555D+00

 Vector   66  Occ=0.000000D+00  E= 2.970310D+00

 Vector   67  Occ=0.000000D+00  E= 2.970310D+00

 Vector   68  Occ=0.000000D+00  E= 5.539232D+00

 Vector   69  Occ=0.000000D+00  E= 6.362394D+01

 Vector    1  Occ=1.000000D+00  E=-3.972453D+02

 Vector    2  Occ=1.000000D+00  E=-4.933857D+01

 Vector    3  Occ=1.000000D+00  E=-4.395462D+01

 Vector    4  Occ=1.000000D+00  E=-4.395003D+01

 Vector    5  Occ=1.000000D+00  E=-4.395003D+01

 Vector    6  Occ=1.000000D+00  E=-6.131890D+00

 Vector    7  Occ=1.000000D+00  E=-4.355342D+00

 Vector    8  Occ=1.000000D+00  E=-4.340607D+00

 Vector    9  Occ=1.000000D+00  E=-4.340607D+00

 Vector   10  Occ=1.000000D+00  E=-1.251870D+00

 Vector   11  Occ=1.000000D+00  E=-1.247745D+00

 Vector   12  Occ=1.000000D+00  E=-1.247745D+00

 Vector   13  Occ=1.000000D+00  E=-1.235644D+00

 Vector   14  Occ=1.000000D+00  E=-1.235644D+00

 Vector   15  Occ=1.000000D+00  E=-4.921334D-01

 Vector   16  Occ=0.000000D+00  E=-3.276565D-02

 Vector   17  Occ=0.000000D+00  E=-2.696589D-03

 Vector   18  Occ=0.000000D+00  E=-2.696589D-03

 Vector   19  Occ=0.000000D+00  E= 3.511565D-02

 Vector   20  Occ=0.000000D+00  E= 5.607800D-02

 Vector   21  Occ=0.000000D+00  E= 6.421531D-02

 Vector   22  Occ=0.000000D+00  E= 6.421531D-02

 Vector   23  Occ=0.000000D+00  E= 1.453610D-01

 Vector   24  Occ=0.000000D+00  E= 1.511618D-01

 Vector   25  Occ=0.000000D+00  E= 1.511618D-01

 Vector   26  Occ=0.000000D+00  E= 1.574706D-01

 Vector   27  Occ=0.000000D+00  E= 1.597151D-01

 Vector   28  Occ=0.000000D+00  E= 1.597151D-01

 Vector   29  Occ=0.000000D+00  E= 2.285431D-01

 Vector   30  Occ=0.000000D+00  E= 2.431576D-01

 Vector   31  Occ=0.000000D+00  E= 2.431576D-01

 Vector   32  Occ=0.000000D+00  E= 4.349988D-01

 Vector   33  Occ=0.000000D+00  E= 4.432300D-01

 Vector   34  Occ=0.000000D+00  E= 4.432300D-01

 Vector   35  Occ=0.000000D+00  E= 4.498490D-01

 Vector   36  Occ=0.000000D+00  E= 4.637057D-01

 Vector   37  Occ=0.000000D+00  E= 4.637057D-01

 Vector   38  Occ=0.000000D+00  E= 4.907110D-01

 Vector   39  Occ=0.000000D+00  E= 4.926647D-01

 Vector   40  Occ=0.000000D+00  E= 4.926647D-01

 Vector   41  Occ=0.000000D+00  E= 4.989384D-01

 Vector   42  Occ=0.000000D+00  E= 4.989384D-01

 Vector   43  Occ=0.000000D+00  E= 5.100295D-01

 Vector   44  Occ=0.000000D+00  E= 5.100295D-01

 Vector   45  Occ=0.000000D+00  E= 6.127232D-01

 Vector   46  Occ=0.000000D+00  E= 6.335518D-01

 Vector   47  Occ=0.000000D+00  E= 6.335518D-01

 Vector   48  Occ=0.000000D+00  E= 8.308149D-01

 Vector   49  Occ=0.000000D+00  E= 1.307297D+00

 Vector   50  Occ=0.000000D+00  E= 1.314536D+00

 Vector   51  Occ=0.000000D+00  E= 1.314536D+00

 Vector   52  Occ=0.000000D+00  E= 1.331244D+00

 Vector   53  Occ=0.000000D+00  E= 1.335198D+00

 Vector   54  Occ=0.000000D+00  E= 1.335198D+00

 Vector   55  Occ=0.000000D+00  E= 1.338642D+00

 Vector   56  Occ=0.000000D+00  E= 1.338642D+00

 Vector   57  Occ=0.000000D+00  E= 1.348092D+00

 Vector   58  Occ=0.000000D+00  E= 1.348092D+00

 Vector   59  Occ=0.000000D+00  E= 1.370415D+00

 Vector   60  Occ=0.000000D+00  E= 1.370415D+00

 Vector   61  Occ=0.000000D+00  E= 1.775660D+00

 Vector   62  Occ=0.000000D+00  E= 1.800226D+00

 Vector   63  Occ=0.000000D+00  E= 1.800226D+00

 Vector   64  Occ=0.000000D+00  E= 2.600172D+00

 Vector   65  Occ=0.000000D+00  E= 2.983583D+00

 Vector   66  Occ=0.000000D+00  E= 3.008420D+00

 Vector   67  Occ=0.000000D+00  E= 3.008420D+00

 Vector   68  Occ=0.000000D+00  E= 5.571430D+00

 Vector   69  Occ=0.000000D+00  E= 6.362937D+01

  Root   1         a              0.000021389 a.u.                0.0006 eV
     Dipole Oscillator Strength                    0.0000000000
  Root   2         a              0.000021394 a.u.                0.0006 eV
     Dipole Oscillator Strength                    0.0000000000
  Root   3         a              0.162031031 a.u.                4.4091 eV
     Dipole Oscillator Strength                    0.1100177123
  Root   4         a              0.162031031 a.u.                4.4091 eV
     Dipole Oscillator Strength                    0.1100177112
  Root   5         a              0.199901161 a.u.                5.4396 eV
     Dipole Oscillator Strength                    0.0000000000
 Total times  cpu:       86.4s     wall:       99.6s
