 Output coordinates in angstroms (scale by  1.889725989 to convert to a.u.)

  No.       Tag          Charge          X              Y              Z
 ---- ---------------- ---------- -------------- -------------- --------------
    1 Li                   3.0000     0.00000000     0.00000000     0.00000000

         Total DFT energy =       -7.461242183019
         Total DFT energy =       -7.465326772065
         Total DFT energy =       -7.466083285245
         Total DFT energy =       -7.466261084221
         Total DFT energy =       -7.466271156848
         Total DFT energy =       -7.466271213711
         Total DFT energy =       -7.466271213711

                    DFT Final Alpha Molecular Orbital Analysis
                    ------------------------------------------

 Vector    1  Occ=1.000000D+00  E=-2.043192D+00

 Vector   31  Occ=0.000000D+00  E= 3.088610D-01

 Vector   32  Occ=0.000000D+00  E= 3.464699D-01

 Vector   33  Occ=0.000000D+00  E= 3.464699D-01

 Vector   34  Occ=0.000000D+00  E= 3.464699D-01

 Vector   35  Occ=0.000000D+00  E= 6.557049D-01

 Vector   36  Occ=0.000000D+00  E= 7.574805D-01

 Vector   37  Occ=0.000000D+00  E= 7.574805D-01

 Vector   38  Occ=0.000000D+00  E= 7.574805D-01

 Vector   39  Occ=0.000000D+00  E= 7.574805D-01

 Vector   40  Occ=0.000000D+00  E= 7.574805D-01

 Vector   41  Occ=0.000000D+00  E= 8.348892D-01

 Vector   42  Occ=0.000000D+00  E= 8.348892D-01

 Vector   43  Occ=0.000000D+00  E= 8.348892D-01

 Vector   44  Occ=0.000000D+00  E= 8.803953D-01

 Vector   45  Occ=0.000000D+00  E= 8.803953D-01

 Vector   46  Occ=0.000000D+00  E= 8.803953D-01

 Vector   47  Occ=0.000000D+00  E= 8.803953D-01

 Vector   48  Occ=0.000000D+00  E= 8.803953D-01

 Vector   49  Occ=0.000000D+00  E= 8.803953D-01

 Vector   50  Occ=0.000000D+00  E= 8.803955D-01

 Vector   51  Occ=0.000000D+00  E= 1.450071D+00

 Vector   52  Occ=0.000000D+00  E= 1.758281D+00

 Vector   53  Occ=0.000000D+00  E= 1.758281D+00

 Vector   54  Occ=0.000000D+00  E= 1.758281D+00

 Vector   55  Occ=0.000000D+00  E= 5.926786D+00

 Vector    1  Occ=1.000000D+00  E=-2.035862D+00

 Vector    2  Occ=0.000000D+00  E= 1.080463D-02

 Vector    3  Occ=0.000000D+00  E= 1.969194D-02

 Vector    4  Occ=0.000000D+00  E= 1.969194D-02

 Vector    5  Occ=0.000000D+00  E= 1.969194D-02

 Vector    6  Occ=0.000000D+00  E= 4.089732D-02

 Vector    7  Occ=0.000000D+00  E= 7.349700D-02

 Vector    8  Occ=0.000000D+00  E= 7.349700D-02

 Vector    9  Occ=0.000000D+00  E= 7.349700D-02

 Vector   10  Occ=0.000000D+00  E= 1.217364D-01

 Vector   11  Occ=0.000000D+00  E= 1.240361D-01

 Vector   12  Occ=0.000000D+00  E= 1.240361D-01

 Vector   13  Occ=0.000000D+00  E= 1.240361D-01

 Vector   14  Occ=0.000000D+00  E= 1.240361D-01

 Vector   15  Occ=0.000000D+00  E= 1.240361D-01

 Vector   16  Occ=0.000000D+00  E= 1.525513D-01

 Vector   17  Occ=0.000000D+00  E= 1.525513D-01

 Vector   18  Occ=0.000000D+00  E= 1.525513D-01

 Vector   19  Occ=0.000000D+00  E= 3.391880D-01

 Vector   20  Occ=0.000000D+00  E= 3.580164D-01

 Vector   21  Occ=0.000000D+00  E= 3.580164D-01

 Vector   22  Occ=0.000000D+00  E= 3.580164D-01

 Vector   23  Occ=0.000000D+00  E= 3.580164D-01

 Vector   24  Occ=0.000000D+00  E= 3.580164D-01

 Vector   25  Occ=0.000000D+00  E= 3.745527D-01

 Vector   26  Occ=0.000000D+00  E= 3.745527D-01

 Vector   27  Occ=0.000000D+00  E= 3.745527D-01

 Vector   28  Occ=0.000000D+00  E= 3.745527D-01

 Vector   29  Occ=0.000000D+00  E= 3.745527D-01

 Vector   30  Occ=0.000000D+00  E= 3.745527D-01

 Vector   31  Occ=0.000000D+00  E= 3.745527D-01

 Vector   32  Occ=0.000000D+00  E= 3.798600D-01

 Vector   33  Occ=0.000000D+00  E= 3.798600D-01

 Vector   34  Occ=0.000000D+00  E= 3.798600D-01

 Vector   35  Occ=0.000000D+00  E= 7.014043D-01

 Vector   36  Occ=0.000000D+00  E= 7.841580D-01

 Vector   37  Occ=0.000000D+00  E= 7.841580D-01

 Vector   38  Occ=0.000000D+00  E= 7.841580D-01

 Vector   39  Occ=0.000000D+00  E= 7.841580D-01

 Vector   40  Occ=0.000000D+00  E= 7.841580D-01

 Vector   41  Occ=0.000000D+00  E= 8.733787D-01

 Vector   42  Occ=0.000000D+00  E= 8.733787D-01

 Vector   43  Occ=0.000000D+00  E= 8.733787D-01

 Vector   44  Occ=0.000000D+00  E= 9.291303D-01

 Vector   45  Occ=0.000000D+00  E= 9.291303D-01

 Vector   46  Occ=0.000000D+00  E= 9.291303D-01

 Vector   47  Occ=0.000000D+00  E= 9.291303D-01

 Vector   48  Occ=0.000000D+00  E= 9.291303D-01

 Vector   49  Occ=0.000000D+00  E= 9.291303D-01

 Vector   50  Occ=0.000000D+00  E= 9.291306D-01

 Vector   51  Occ=0.000000D+00  E= 1.473228D+00

 Vector   52  Occ=0.000000D+00  E= 1.768471D+00

 Vector   53  Occ=0.000000D+00  E= 1.768471D+00

 Vector   54  Occ=0.000000D+00  E= 1.768471D+00

 Vector   55  Occ=0.000000D+00  E= 5.941846D+00

  Root   1         a              0.070504288 a.u.                1.9185 eV
     Dipole Oscillator Strength                    0.2478618341
  Root   2         a              0.070504288 a.u.                1.9185 eV
     Dipole Oscillator Strength                    0.2478618341
  Root   3         a              0.070504288 a.u.                1.9185 eV
     Dipole Oscillator Strength                    0.2478618097
  Root   4         a              0.128345287 a.u.                3.4925 eV
     Dipole Oscillator Strength                    0.0000000000
  Root   5         a              0.144082929 a.u.                3.9207 eV
     Dipole Oscillator Strength                    0.0019014102
 Total times  cpu:       12.5s     wall:       15.3s
