 Output coordinates in angstroms (scale by  1.889725989 to convert to a.u.)

  No.       Tag          Charge          X              Y              Z
 ---- ---------------- ---------- -------------- -------------- --------------
    1 Li                   3.0000     0.00000000     0.00000000     0.00000000

         Total DFT energy =       -7.464607970356
         Total DFT energy =       -7.468413893047
         Total DFT energy =       -7.469169722332
         Total DFT energy =       -7.469354707348
         Total DFT energy =       -7.469362878167
         Total DFT energy =       -7.469362941127
         Total DFT energy =       -7.469362942627
         Total DFT energy =       -7.469362942627

                    DFT Final Alpha Molecular Orbital Analysis
                    ------------------------------------------

 Vector    1  Occ=1.000000D+00  E=-2.117073D+00

 Vector   31  Occ=0.000000D+00  E= 3.136712D-01

 Vector   32  Occ=0.000000D+00  E= 3.618997D-01

 Vector   33  Occ=0.000000D+00  E= 3.618997D-01

 Vector   34  Occ=0.000000D+00  E= 3.618997D-01

 Vector   35  Occ=0.000000D+00  E= 6.699766D-01

 Vector   36  Occ=0.000000D+00  E= 7.807635D-01

 Vector   37  Occ=0.000000D+00  E= 7.807635D-01

 Vector   38  Occ=0.000000D+00  E= 7.807635D-01

 Vector   39  Occ=0.000000D+00  E= 7.807635D-01

 Vector   40  Occ=0.000000D+00  E= 7.807635D-01

 Vector   41  Occ=0.000000D+00  E= 8.630277D-01

 Vector   42  Occ=0.000000D+00  E= 8.630277D-01

 Vector   43  Occ=0.000000D+00  E= 8.630277D-01

 Vector   44  Occ=0.000000D+00  E= 9.039643D-01

 Vector   45  Occ=0.000000D+00  E= 9.039643D-01

 Vector   46  Occ=0.000000D+00  E= 9.039643D-01

 Vector   47  Occ=0.000000D+00  E= 9.039643D-01

 Vector   48  Occ=0.000000D+00  E= 9.039643D-01

 Vector   49  Occ=0.000000D+00  E= 9.039643D-01

 Vector   50  Occ=0.000000D+00  E= 9.039644D-01

 Vector   51  Occ=0.000000D+00  E= 1.484286D+00

 Vector   52  Occ=0.000000D+00  E= 1.796446D+00

 Vector   53  Occ=0.000000D+00  E= 1.796446D+00

 Vector   54  Occ=0.000000D+00  E= 1.796446D+00

 Vector   55  Occ=0.000000D+00  E= 5.988450D+00

 Vector    1  Occ=1.000000D+00  E=-2.110170D+00

 Vector    2  Occ=0.000000D+00  E= 1.092831D-02

 Vector    3  Occ=0.000000D+00  E= 1.961532D-02

 Vector    4  Occ=0.000000D+00  E= 1.961532D-02

 Vector    5  Occ=0.000000D+00  E= 1.961532D-02

 Vector    6  Occ=0.000000D+00  E= 4.378499D-02

 Vector    7  Occ=0.000000D+00  E= 7.299644D-02

 Vector    8  Occ=0.000000D+00  E= 7.299644D-02

 Vector    9  Occ=0.000000D+00  E= 7.299644D-02

 Vector   10  Occ=0.000000D+00  E= 1.221485D-01

 Vector   11  Occ=0.000000D+00  E= 1.221485D-01

 Vector   12  Occ=0.000000D+00  E= 1.221485D-01

 Vector   13  Occ=0.000000D+00  E= 1.221485D-01

 Vector   14  Occ=0.000000D+00  E= 1.221485D-01

 Vector   15  Occ=0.000000D+00  E= 1.244830D-01

 Vector   16  Occ=0.000000D+00  E= 1.585348D-01

 Vector   17  Occ=0.000000D+00  E= 1.585348D-01

 Vector   18  Occ=0.000000D+00  E= 1.585348D-01

 Vector   19  Occ=0.000000D+00  E= 3.405389D-01

 Vector   20  Occ=0.000000D+00  E= 3.596655D-01

 Vector   21  Occ=0.000000D+00  E= 3.596655D-01

 Vector   22  Occ=0.000000D+00  E= 3.596655D-01

 Vector   23  Occ=0.000000D+00  E= 3.596655D-01

 Vector   24  Occ=0.000000D+00  E= 3.596655D-01

 Vector   25  Occ=0.000000D+00  E= 3.720025D-01

 Vector   26  Occ=0.000000D+00  E= 3.720025D-01

 Vector   27  Occ=0.000000D+00  E= 3.720025D-01

 Vector   28  Occ=0.000000D+00  E= 3.720025D-01

 Vector   29  Occ=0.000000D+00  E= 3.720025D-01

 Vector   30  Occ=0.000000D+00  E= 3.720025D-01

 Vector   31  Occ=0.000000D+00  E= 3.720028D-01

 Vector   32  Occ=0.000000D+00  E= 3.860228D-01

 Vector   33  Occ=0.000000D+00  E= 3.860228D-01

 Vector   34  Occ=0.000000D+00  E= 3.860228D-01

 Vector   35  Occ=0.000000D+00  E= 7.100551D-01

 Vector   36  Occ=0.000000D+00  E= 7.904370D-01

 Vector   37  Occ=0.000000D+00  E= 7.904370D-01

 Vector   38  Occ=0.000000D+00  E= 7.904370D-01

 Vector   39  Occ=0.000000D+00  E= 7.904370D-01

 Vector   40  Occ=0.000000D+00  E= 7.904370D-01

 Vector   41  Occ=0.000000D+00  E= 8.905141D-01

 Vector   42  Occ=0.000000D+00  E= 8.905141D-01

 Vector   43  Occ=0.000000D+00  E= 8.905141D-01

 Vector   44  Occ=0.000000D+00  E= 9.301896D-01

 Vector   45  Occ=0.000000D+00  E= 9.301896D-01

 Vector   46  Occ=0.000000D+00  E= 9.301896D-01

 Vector   47  Occ=0.000000D+00  E= 9.301896D-01

 Vector   48  Occ=0.000000D+00  E= 9.301896D-01

 Vector   49  Occ=0.000000D+00  E= 9.301896D-01

 Vector   50  Occ=0.000000D+00  E= 9.301897D-01

 Vector   51  Occ=0.000000D+00  E= 1.497596D+00

 Vector   52  Occ=0.000000D+00  E= 1.800936D+00

 Vector   53  Occ=0.000000D+00  E= 1.800936D+00

 Vector   54  Occ=0.000000D+00  E= 1.800936D+00

 Vector   55  Occ=0.000000D+00  E= 5.999405D+00

  Root   1         a              0.068598518 a.u.                1.8667 eV
     Dipole Oscillator Strength                    0.2477191769
  Root   2         a              0.068598518 a.u.                1.8667 eV
     Dipole Oscillator Strength                    0.2477191770
  Root   3         a              0.068598519 a.u.                1.8667 eV
     Dipole Oscillator Strength                    0.2477191633
  Root   4         a              0.130535013 a.u.                3.5520 eV
     Dipole Oscillator Strength                    0.0000000000
  Root   5         a              0.148015633 a.u.                4.0277 eV
     Dipole Oscillator Strength                    0.0024907521
 Total times  cpu:       15.3s     wall:       18.9s
