 Output coordinates in angstroms (scale by  1.889725989 to convert to a.u.)

  No.       Tag          Charge          X              Y              Z
 ---- ---------------- ---------- -------------- -------------- --------------
    1 N                    7.0000     0.00000000     0.00000000     0.00000000

         Total DFT energy =      -54.509540054818
         Total DFT energy =      -54.554602174520
         Total DFT energy =      -54.560246086614
         Total DFT energy =      -54.560595744154
         Total DFT energy =      -54.560629168743
         Total DFT energy =      -54.560629366561
         Total DFT energy =      -54.560629366561

                    DFT Final Alpha Molecular Orbital Analysis
                    ------------------------------------------

 Vector    1  Occ=1.000000D+00  E=-1.433164D+01

 Vector   31  Occ=0.000000D+00  E= 1.406898D+00

 Vector   32  Occ=0.000000D+00  E= 1.406898D+00

 Vector   33  Occ=0.000000D+00  E= 1.406898D+00

 Vector   34  Occ=0.000000D+00  E= 1.406898D+00

 Vector   35  Occ=0.000000D+00  E= 2.569083D+00

 Vector   36  Occ=0.000000D+00  E= 3.773261D+00

 Vector   37  Occ=0.000000D+00  E= 3.773261D+00

 Vector   38  Occ=0.000000D+00  E= 3.773261D+00

 Vector   39  Occ=0.000000D+00  E= 4.537586D+00

 Vector   40  Occ=0.000000D+00  E= 4.537586D+00

 Vector   41  Occ=0.000000D+00  E= 4.537586D+00

 Vector   42  Occ=0.000000D+00  E= 4.537586D+00

 Vector   43  Occ=0.000000D+00  E= 4.537586D+00

 Vector   44  Occ=0.000000D+00  E= 4.537586D+00

 Vector   45  Occ=0.000000D+00  E= 4.537586D+00

 Vector   46  Occ=0.000000D+00  E= 4.641924D+00

 Vector   47  Occ=0.000000D+00  E= 4.641924D+00

 Vector   48  Occ=0.000000D+00  E= 4.641924D+00

 Vector   49  Occ=0.000000D+00  E= 4.641924D+00

 Vector   50  Occ=0.000000D+00  E= 4.641924D+00

 Vector   51  Occ=0.000000D+00  E= 8.088169D+00

 Vector   52  Occ=0.000000D+00  E= 9.309309D+00

 Vector   53  Occ=0.000000D+00  E= 9.309309D+00

 Vector   54  Occ=0.000000D+00  E= 9.309309D+00

 Vector   55  Occ=0.000000D+00  E= 1.188582D+01

 Vector    1  Occ=1.000000D+00  E=-1.427618D+01

 Vector    2  Occ=1.000000D+00  E=-7.394211D-01

 Vector    3  Occ=0.000000D+00  E= 5.683827D-03

 Vector    4  Occ=0.000000D+00  E= 5.683827D-03

 Vector    5  Occ=0.000000D+00  E= 5.683827D-03

 Vector    6  Occ=0.000000D+00  E= 9.686072D-02

 Vector    7  Occ=0.000000D+00  E= 1.443648D-01

 Vector    8  Occ=0.000000D+00  E= 1.443648D-01

 Vector    9  Occ=0.000000D+00  E= 1.443648D-01

 Vector   10  Occ=0.000000D+00  E= 4.435201D-01

 Vector   11  Occ=0.000000D+00  E= 4.625008D-01

 Vector   12  Occ=0.000000D+00  E= 4.625008D-01

 Vector   13  Occ=0.000000D+00  E= 4.625008D-01

 Vector   14  Occ=0.000000D+00  E= 4.625008D-01

 Vector   15  Occ=0.000000D+00  E= 4.625008D-01

 Vector   16  Occ=0.000000D+00  E= 5.651208D-01

 Vector   17  Occ=0.000000D+00  E= 5.651208D-01

 Vector   18  Occ=0.000000D+00  E= 5.651208D-01

 Vector   19  Occ=0.000000D+00  E= 1.459357D+00

 Vector   20  Occ=0.000000D+00  E= 1.459357D+00

 Vector   21  Occ=0.000000D+00  E= 1.459357D+00

 Vector   22  Occ=0.000000D+00  E= 1.459357D+00

 Vector   23  Occ=0.000000D+00  E= 1.459357D+00

 Vector   24  Occ=0.000000D+00  E= 1.459357D+00

 Vector   25  Occ=0.000000D+00  E= 1.459357D+00

 Vector   26  Occ=0.000000D+00  E= 1.463764D+00

 Vector   27  Occ=0.000000D+00  E= 1.463764D+00

 Vector   28  Occ=0.000000D+00  E= 1.463764D+00

 Vector   29  Occ=0.000000D+00  E= 1.484550D+00

 Vector   30  Occ=0.000000D+00  E= 1.500483D+00

 Vector   31  Occ=0.000000D+00  E= 1.500483D+00

 Vector   32  Occ=0.000000D+00  E= 1.500483D+00

 Vector   33  Occ=0.000000D+00  E= 1.500483D+00

 Vector   34  Occ=0.000000D+00  E= 1.500483D+00

 Vector   35  Occ=0.000000D+00  E= 2.614568D+00

 Vector   36  Occ=0.000000D+00  E= 3.889561D+00

 Vector   37  Occ=0.000000D+00  E= 3.889561D+00

 Vector   38  Occ=0.000000D+00  E= 3.889561D+00

 Vector   39  Occ=0.000000D+00  E= 4.682030D+00

 Vector   40  Occ=0.000000D+00  E= 4.682030D+00

 Vector   41  Occ=0.000000D+00  E= 4.682030D+00

 Vector   42  Occ=0.000000D+00  E= 4.682030D+00

 Vector   43  Occ=0.000000D+00  E= 4.682030D+00

 Vector   44  Occ=0.000000D+00  E= 4.682030D+00

 Vector   45  Occ=0.000000D+00  E= 4.682030D+00

 Vector   46  Occ=0.000000D+00  E= 4.831645D+00

 Vector   47  Occ=0.000000D+00  E= 4.831645D+00

 Vector   48  Occ=0.000000D+00  E= 4.831645D+00

 Vector   49  Occ=0.000000D+00  E= 4.831645D+00

 Vector   50  Occ=0.000000D+00  E= 4.831645D+00

 Vector   51  Occ=0.000000D+00  E= 8.188297D+00

 Vector   52  Occ=0.000000D+00  E= 9.405695D+00

 Vector   53  Occ=0.000000D+00  E= 9.405695D+00

 Vector   54  Occ=0.000000D+00  E= 9.405695D+00

 Vector   55  Occ=0.000000D+00  E= 1.202120D+01

  Root   1         a              0.359630897 a.u.                9.7861 eV
     Dipole Oscillator Strength                    0.0825401070
  Root   2         a              0.359630897 a.u.                9.7861 eV
     Dipole Oscillator Strength                    0.0825401070
  Root   3         a              0.359630897 a.u.                9.7861 eV
     Dipole Oscillator Strength                    0.0825404879
  Root   4         a              0.400190239 a.u.               10.8897 eV
     Dipole Oscillator Strength                    0.0355077588
  Root   5         a              0.400190239 a.u.               10.8897 eV
     Dipole Oscillator Strength                    0.0355077588
 Total times  cpu:       13.7s     wall:       16.6s
