 Output coordinates in angstroms (scale by  1.889725989 to convert to a.u.)

  No.       Tag          Charge          X              Y              Z
 ---- ---------------- ---------- -------------- -------------- --------------
    1 N                    7.0000     0.00000000     0.00000000     0.00000000

         Total DFT energy =      -54.510810601686
         Total DFT energy =      -54.556628106789
         Total DFT energy =      -54.562048894669
         Total DFT energy =      -54.562413891100
         Total DFT energy =      -54.562448860532
         Total DFT energy =      -54.562449077615
         Total DFT energy =      -54.562449077615

                    DFT Final Alpha Molecular Orbital Analysis
                    ------------------------------------------

 Vector    1  Occ=1.000000D+00  E=-1.434372D+01

 Vector   31  Occ=0.000000D+00  E= 1.411692D+00

 Vector   32  Occ=0.000000D+00  E= 1.411692D+00

 Vector   33  Occ=0.000000D+00  E= 1.411692D+00

 Vector   34  Occ=0.000000D+00  E= 1.411692D+00

 Vector   35  Occ=0.000000D+00  E= 2.572944D+00

 Vector   36  Occ=0.000000D+00  E= 3.782991D+00

 Vector   37  Occ=0.000000D+00  E= 3.782991D+00

 Vector   38  Occ=0.000000D+00  E= 3.782991D+00

 Vector   39  Occ=0.000000D+00  E= 4.547835D+00

 Vector   40  Occ=0.000000D+00  E= 4.547835D+00

 Vector   41  Occ=0.000000D+00  E= 4.547835D+00

 Vector   42  Occ=0.000000D+00  E= 4.547835D+00

 Vector   43  Occ=0.000000D+00  E= 4.547835D+00

 Vector   44  Occ=0.000000D+00  E= 4.547835D+00

 Vector   45  Occ=0.000000D+00  E= 4.547835D+00

 Vector   46  Occ=0.000000D+00  E= 4.652872D+00

 Vector   47  Occ=0.000000D+00  E= 4.652872D+00

 Vector   48  Occ=0.000000D+00  E= 4.652872D+00

 Vector   49  Occ=0.000000D+00  E= 4.652872D+00

 Vector   50  Occ=0.000000D+00  E= 4.652872D+00

 Vector   51  Occ=0.000000D+00  E= 8.097735D+00

 Vector   52  Occ=0.000000D+00  E= 9.317034D+00

 Vector   53  Occ=0.000000D+00  E= 9.317034D+00

 Vector   54  Occ=0.000000D+00  E= 9.317034D+00

 Vector   55  Occ=0.000000D+00  E= 1.189712D+01

 Vector    1  Occ=1.000000D+00  E=-1.428822D+01

 Vector    2  Occ=1.000000D+00  E=-7.448742D-01

 Vector    3  Occ=0.000000D+00  E= 1.006784D-02

 Vector    4  Occ=0.000000D+00  E= 1.006784D-02

 Vector    5  Occ=0.000000D+00  E= 1.006784D-02

 Vector    6  Occ=0.000000D+00  E= 9.704026D-02

 Vector    7  Occ=0.000000D+00  E= 1.459757D-01

 Vector    8  Occ=0.000000D+00  E= 1.459757D-01

 Vector    9  Occ=0.000000D+00  E= 1.459757D-01

 Vector   10  Occ=0.000000D+00  E= 4.447851D-01

 Vector   11  Occ=0.000000D+00  E= 4.635635D-01

 Vector   12  Occ=0.000000D+00  E= 4.635635D-01

 Vector   13  Occ=0.000000D+00  E= 4.635635D-01

 Vector   14  Occ=0.000000D+00  E= 4.635635D-01

 Vector   15  Occ=0.000000D+00  E= 4.635635D-01

 Vector   16  Occ=0.000000D+00  E= 5.678893D-01

 Vector   17  Occ=0.000000D+00  E= 5.678893D-01

 Vector   18  Occ=0.000000D+00  E= 5.678893D-01

 Vector   19  Occ=0.000000D+00  E= 1.462404D+00

 Vector   20  Occ=0.000000D+00  E= 1.462404D+00

 Vector   21  Occ=0.000000D+00  E= 1.462404D+00

 Vector   22  Occ=0.000000D+00  E= 1.462404D+00

 Vector   23  Occ=0.000000D+00  E= 1.462404D+00

 Vector   24  Occ=0.000000D+00  E= 1.462404D+00

 Vector   25  Occ=0.000000D+00  E= 1.462404D+00

 Vector   26  Occ=0.000000D+00  E= 1.468612D+00

 Vector   27  Occ=0.000000D+00  E= 1.468612D+00

 Vector   28  Occ=0.000000D+00  E= 1.468612D+00

 Vector   29  Occ=0.000000D+00  E= 1.488610D+00

 Vector   30  Occ=0.000000D+00  E= 1.506267D+00

 Vector   31  Occ=0.000000D+00  E= 1.506267D+00

 Vector   32  Occ=0.000000D+00  E= 1.506267D+00

 Vector   33  Occ=0.000000D+00  E= 1.506267D+00

 Vector   34  Occ=0.000000D+00  E= 1.506267D+00

 Vector   35  Occ=0.000000D+00  E= 2.617449D+00

 Vector   36  Occ=0.000000D+00  E= 3.898649D+00

 Vector   37  Occ=0.000000D+00  E= 3.898649D+00

 Vector   38  Occ=0.000000D+00  E= 3.898649D+00

 Vector   39  Occ=0.000000D+00  E= 4.690805D+00

 Vector   40  Occ=0.000000D+00  E= 4.690805D+00

 Vector   41  Occ=0.000000D+00  E= 4.690805D+00

 Vector   42  Occ=0.000000D+00  E= 4.690805D+00

 Vector   43  Occ=0.000000D+00  E= 4.690805D+00

 Vector   44  Occ=0.000000D+00  E= 4.690805D+00

 Vector   45  Occ=0.000000D+00  E= 4.690805D+00

 Vector   46  Occ=0.000000D+00  E= 4.842101D+00

 Vector   47  Occ=0.000000D+00  E= 4.842101D+00

 Vector   48  Occ=0.000000D+00  E= 4.842101D+00

 Vector   49  Occ=0.000000D+00  E= 4.842101D+00

 Vector   50  Occ=0.000000D+00  E= 4.842101D+00

 Vector   51  Occ=0.000000D+00  E= 8.196532D+00

 Vector   52  Occ=0.000000D+00  E= 9.411861D+00

 Vector   53  Occ=0.000000D+00  E= 9.411861D+00

 Vector   54  Occ=0.000000D+00  E= 9.411861D+00

 Vector   55  Occ=0.000000D+00  E= 1.203221D+01

  Root   1         a              0.364113294 a.u.                9.9080 eV
     Dipole Oscillator Strength                    0.0879065497
  Root   2         a              0.364113294 a.u.                9.9080 eV
     Dipole Oscillator Strength                    0.0879065499
  Root   3         a              0.364113294 a.u.                9.9080 eV
     Dipole Oscillator Strength                    0.0879070898
  Root   4         a              0.400403396 a.u.               10.8955 eV
     Dipole Oscillator Strength                    0.0313447967
  Root   5         a              0.400403396 a.u.               10.8955 eV
     Dipole Oscillator Strength                    0.0313447966
 Total times  cpu:       21.4s     wall:       25.7s
