 Output coordinates in angstroms (scale by  1.889725989 to convert to a.u.)

  No.       Tag          Charge          X              Y              Z
 ---- ---------------- ---------- -------------- -------------- --------------
    1 Na                  11.0000     0.00000000     0.00000000     0.00000000

         Total DFT energy =     -162.174073601635
         Total DFT energy =     -162.179602886171
         Total DFT energy =     -162.180581733574
         Total DFT energy =     -162.180838880927
         Total DFT energy =     -162.180942585174
         Total DFT energy =     -162.180942902038
         Total DFT energy =     -162.180942902038

                    DFT Final Alpha Molecular Orbital Analysis
                    ------------------------------------------

 Vector    1  Occ=1.000000D+00  E=-3.812464D+01

 Vector   39  Occ=0.000000D+00  E= 4.100753D-01

 Vector   40  Occ=0.000000D+00  E= 4.611542D-01

 Vector   41  Occ=0.000000D+00  E= 4.611542D-01

 Vector   42  Occ=0.000000D+00  E= 4.611542D-01

 Vector   43  Occ=0.000000D+00  E= 5.320969D-01

 Vector   44  Occ=0.000000D+00  E= 5.320969D-01

 Vector   45  Occ=0.000000D+00  E= 5.320969D-01

 Vector   46  Occ=0.000000D+00  E= 5.320969D-01

 Vector   47  Occ=0.000000D+00  E= 5.320969D-01

 Vector   48  Occ=0.000000D+00  E= 7.031740D-01

 Vector   49  Occ=0.000000D+00  E= 7.031740D-01

 Vector   50  Occ=0.000000D+00  E= 7.031740D-01

 Vector   51  Occ=0.000000D+00  E= 7.031740D-01

 Vector   52  Occ=0.000000D+00  E= 7.031740D-01

 Vector   53  Occ=0.000000D+00  E= 7.031740D-01

 Vector   54  Occ=0.000000D+00  E= 7.031740D-01

 Vector   55  Occ=0.000000D+00  E= 9.929891D-01

 Vector   56  Occ=0.000000D+00  E= 1.002298D+00

 Vector   57  Occ=0.000000D+00  E= 1.002298D+00

 Vector   58  Occ=0.000000D+00  E= 1.002298D+00

 Vector   59  Occ=0.000000D+00  E= 3.324794D+00

 Vector    1  Occ=1.000000D+00  E=-3.812357D+01

 Vector    2  Occ=1.000000D+00  E=-2.237319D+00

 Vector    3  Occ=1.000000D+00  E=-1.206978D+00

 Vector    4  Occ=1.000000D+00  E=-1.206978D+00

 Vector    5  Occ=1.000000D+00  E=-1.206978D+00

 Vector    6  Occ=0.000000D+00  E=-4.199664D-03

 Vector    7  Occ=0.000000D+00  E= 1.365458D-02

 Vector    8  Occ=0.000000D+00  E= 1.365458D-02

 Vector    9  Occ=0.000000D+00  E= 1.365458D-02

 Vector   10  Occ=0.000000D+00  E= 1.733871D-02

 Vector   11  Occ=0.000000D+00  E= 4.512140D-02

 Vector   12  Occ=0.000000D+00  E= 4.512140D-02

 Vector   13  Occ=0.000000D+00  E= 4.512140D-02

 Vector   14  Occ=0.000000D+00  E= 7.092818D-02

 Vector   15  Occ=0.000000D+00  E= 7.190661D-02

 Vector   16  Occ=0.000000D+00  E= 7.190661D-02

 Vector   17  Occ=0.000000D+00  E= 7.190662D-02

 Vector   18  Occ=0.000000D+00  E= 7.190663D-02

 Vector   19  Occ=0.000000D+00  E= 7.190663D-02

 Vector   20  Occ=0.000000D+00  E= 1.023009D-01

 Vector   21  Occ=0.000000D+00  E= 1.023009D-01

 Vector   22  Occ=0.000000D+00  E= 1.023009D-01

 Vector   23  Occ=0.000000D+00  E= 1.920199D-01

 Vector   24  Occ=0.000000D+00  E= 2.256444D-01

 Vector   25  Occ=0.000000D+00  E= 2.256444D-01

 Vector   26  Occ=0.000000D+00  E= 2.256444D-01

 Vector   27  Occ=0.000000D+00  E= 2.256444D-01

 Vector   28  Occ=0.000000D+00  E= 2.256444D-01

 Vector   29  Occ=0.000000D+00  E= 2.274687D-01

 Vector   30  Occ=0.000000D+00  E= 2.274687D-01

 Vector   31  Occ=0.000000D+00  E= 2.274687D-01

 Vector   32  Occ=0.000000D+00  E= 2.840095D-01

 Vector   33  Occ=0.000000D+00  E= 2.840095D-01

 Vector   34  Occ=0.000000D+00  E= 2.840095D-01

 Vector   35  Occ=0.000000D+00  E= 2.840095D-01

 Vector   36  Occ=0.000000D+00  E= 2.840095D-01

 Vector   37  Occ=0.000000D+00  E= 2.840095D-01

 Vector   38  Occ=0.000000D+00  E= 2.840095D-01

 Vector   39  Occ=0.000000D+00  E= 4.233074D-01

 Vector   40  Occ=0.000000D+00  E= 4.726352D-01

 Vector   41  Occ=0.000000D+00  E= 4.726352D-01

 Vector   42  Occ=0.000000D+00  E= 4.726352D-01

 Vector   43  Occ=0.000000D+00  E= 5.421765D-01

 Vector   44  Occ=0.000000D+00  E= 5.421765D-01

 Vector   45  Occ=0.000000D+00  E= 5.421765D-01

 Vector   46  Occ=0.000000D+00  E= 5.421765D-01

 Vector   47  Occ=0.000000D+00  E= 5.421765D-01

 Vector   48  Occ=0.000000D+00  E= 7.159563D-01

 Vector   49  Occ=0.000000D+00  E= 7.159563D-01

 Vector   50  Occ=0.000000D+00  E= 7.159563D-01

 Vector   51  Occ=0.000000D+00  E= 7.159563D-01

 Vector   52  Occ=0.000000D+00  E= 7.159563D-01

 Vector   53  Occ=0.000000D+00  E= 7.159563D-01

 Vector   54  Occ=0.000000D+00  E= 7.159563D-01

 Vector   55  Occ=0.000000D+00  E= 1.004042D+00

 Vector   56  Occ=0.000000D+00  E= 1.012424D+00

 Vector   57  Occ=0.000000D+00  E= 1.012424D+00

 Vector   58  Occ=0.000000D+00  E= 1.012424D+00

 Vector   59  Occ=0.000000D+00  E= 3.330365D+00

  Root   1         a              0.075102980 a.u.                2.0437 eV
     Dipole Oscillator Strength                    0.3257508706
  Root   2         a              0.075102981 a.u.                2.0437 eV
     Dipole Oscillator Strength                    0.3257513339
  Root   3         a              0.075102981 a.u.                2.0437 eV
     Dipole Oscillator Strength                    0.3257513339
  Root   4         a              0.119760754 a.u.                3.2589 eV
     Dipole Oscillator Strength                    0.0000000000
  Root   5         a              0.139033043 a.u.                3.7833 eV
     Dipole Oscillator Strength                    0.0029697256
 Total times  cpu:       25.5s     wall:       30.1s
