 Output coordinates in angstroms (scale by  1.889725989 to convert to a.u.)

  No.       Tag          Charge          X              Y              Z
 ---- ---------------- ---------- -------------- -------------- --------------
    1 Na                  11.0000     0.00000000     0.00000000     0.00000000

         Total DFT energy =     -162.169145944219
         Total DFT energy =     -162.174821035866
         Total DFT energy =     -162.175826141716
         Total DFT energy =     -162.176078195228
         Total DFT energy =     -162.176175046631
         Total DFT energy =     -162.176175236725
         Total DFT energy =     -162.176175236725

                    DFT Final Alpha Molecular Orbital Analysis
                    ------------------------------------------

 Vector    1  Occ=1.000000D+00  E=-3.809703D+01

 Vector   39  Occ=0.000000D+00  E= 4.042911D-01

 Vector   40  Occ=0.000000D+00  E= 4.543680D-01

 Vector   41  Occ=0.000000D+00  E= 4.543680D-01

 Vector   42  Occ=0.000000D+00  E= 4.543680D-01

 Vector   43  Occ=0.000000D+00  E= 5.216223D-01

 Vector   44  Occ=0.000000D+00  E= 5.216223D-01

 Vector   45  Occ=0.000000D+00  E= 5.216223D-01

 Vector   46  Occ=0.000000D+00  E= 5.216223D-01

 Vector   47  Occ=0.000000D+00  E= 5.216223D-01

 Vector   48  Occ=0.000000D+00  E= 6.926274D-01

 Vector   49  Occ=0.000000D+00  E= 6.926274D-01

 Vector   50  Occ=0.000000D+00  E= 6.926274D-01

 Vector   51  Occ=0.000000D+00  E= 6.926274D-01

 Vector   52  Occ=0.000000D+00  E= 6.926274D-01

 Vector   53  Occ=0.000000D+00  E= 6.926274D-01

 Vector   54  Occ=0.000000D+00  E= 6.926274D-01

 Vector   55  Occ=0.000000D+00  E= 9.789925D-01

 Vector   56  Occ=0.000000D+00  E= 9.879535D-01

 Vector   57  Occ=0.000000D+00  E= 9.879535D-01

 Vector   58  Occ=0.000000D+00  E= 9.879535D-01

 Vector   59  Occ=0.000000D+00  E= 3.305156D+00

 Vector    1  Occ=1.000000D+00  E=-3.809598D+01

 Vector    2  Occ=1.000000D+00  E=-2.208502D+00

 Vector    3  Occ=1.000000D+00  E=-1.180929D+00

 Vector    4  Occ=1.000000D+00  E=-1.180929D+00

 Vector    5  Occ=1.000000D+00  E=-1.180929D+00

 Vector    6  Occ=0.000000D+00  E=-6.666046D-03

 Vector    7  Occ=0.000000D+00  E= 1.360423D-02

 Vector    8  Occ=0.000000D+00  E= 1.360423D-02

 Vector    9  Occ=0.000000D+00  E= 1.360423D-02

 Vector   10  Occ=0.000000D+00  E= 1.649601D-02

 Vector   11  Occ=0.000000D+00  E= 4.464531D-02

 Vector   12  Occ=0.000000D+00  E= 4.464531D-02

 Vector   13  Occ=0.000000D+00  E= 4.464531D-02

 Vector   14  Occ=0.000000D+00  E= 6.956284D-02

 Vector   15  Occ=0.000000D+00  E= 7.164013D-02

 Vector   16  Occ=0.000000D+00  E= 7.164013D-02

 Vector   17  Occ=0.000000D+00  E= 7.164014D-02

 Vector   18  Occ=0.000000D+00  E= 7.164014D-02

 Vector   19  Occ=0.000000D+00  E= 7.164014D-02

 Vector   20  Occ=0.000000D+00  E= 1.009766D-01

 Vector   21  Occ=0.000000D+00  E= 1.009766D-01

 Vector   22  Occ=0.000000D+00  E= 1.009766D-01

 Vector   23  Occ=0.000000D+00  E= 1.893426D-01

 Vector   24  Occ=0.000000D+00  E= 2.248835D-01

 Vector   25  Occ=0.000000D+00  E= 2.248835D-01

 Vector   26  Occ=0.000000D+00  E= 2.248835D-01

 Vector   27  Occ=0.000000D+00  E= 2.248835D-01

 Vector   28  Occ=0.000000D+00  E= 2.248835D-01

 Vector   29  Occ=0.000000D+00  E= 2.251482D-01

 Vector   30  Occ=0.000000D+00  E= 2.251482D-01

 Vector   31  Occ=0.000000D+00  E= 2.251482D-01

 Vector   32  Occ=0.000000D+00  E= 2.833012D-01

 Vector   33  Occ=0.000000D+00  E= 2.833012D-01

 Vector   34  Occ=0.000000D+00  E= 2.833012D-01

 Vector   35  Occ=0.000000D+00  E= 2.833013D-01

 Vector   36  Occ=0.000000D+00  E= 2.833013D-01

 Vector   37  Occ=0.000000D+00  E= 2.833013D-01

 Vector   38  Occ=0.000000D+00  E= 2.833013D-01

 Vector   39  Occ=0.000000D+00  E= 4.189969D-01

 Vector   40  Occ=0.000000D+00  E= 4.680937D-01

 Vector   41  Occ=0.000000D+00  E= 4.680937D-01

 Vector   42  Occ=0.000000D+00  E= 4.680937D-01

 Vector   43  Occ=0.000000D+00  E= 5.359641D-01

 Vector   44  Occ=0.000000D+00  E= 5.359641D-01

 Vector   45  Occ=0.000000D+00  E= 5.359641D-01

 Vector   46  Occ=0.000000D+00  E= 5.359641D-01

 Vector   47  Occ=0.000000D+00  E= 5.359641D-01

 Vector   48  Occ=0.000000D+00  E= 7.125928D-01

 Vector   49  Occ=0.000000D+00  E= 7.125928D-01

 Vector   50  Occ=0.000000D+00  E= 7.125928D-01

 Vector   51  Occ=0.000000D+00  E= 7.125928D-01

 Vector   52  Occ=0.000000D+00  E= 7.125928D-01

 Vector   53  Occ=0.000000D+00  E= 7.125928D-01

 Vector   54  Occ=0.000000D+00  E= 7.125928D-01

 Vector   55  Occ=0.000000D+00  E= 9.946350D-01

 Vector   56  Occ=0.000000D+00  E= 1.002198D+00

 Vector   57  Occ=0.000000D+00  E= 1.002198D+00

 Vector   58  Occ=0.000000D+00  E= 1.002198D+00

 Vector   59  Occ=0.000000D+00  E= 3.312201D+00

  Root   1         a              0.075926688 a.u.                2.0661 eV
     Dipole Oscillator Strength                    0.3246567937
  Root   2         a              0.075926689 a.u.                2.0661 eV
     Dipole Oscillator Strength                    0.3246571301
  Root   3         a              0.075926689 a.u.                2.0661 eV
     Dipole Oscillator Strength                    0.3246571301
  Root   4         a              0.118158357 a.u.                3.2153 eV
     Dipole Oscillator Strength                    0.0000000000
  Root   5         a              0.136335313 a.u.                3.7099 eV
     Dipole Oscillator Strength                    0.0038520287
 Total times  cpu:       21.8s     wall:       26.0s
