 Output coordinates in angstroms (scale by  1.889725989 to convert to a.u.)

  No.       Tag          Charge          X              Y              Z
 ---- ---------------- ---------- -------------- -------------- --------------
    1 P                   15.0000     0.00000000     0.00000000     0.00000000

         Total DFT energy =     -341.108940230225
         Total DFT energy =     -341.135219751325
         Total DFT energy =     -341.136143896403
         Total DFT energy =     -341.136225921280
         Total DFT energy =     -341.136240955047
         Total DFT energy =     -341.136241704645
         Total DFT energy =     -341.136241704645

                    DFT Final Alpha Molecular Orbital Analysis
                    ------------------------------------------

 Vector    1  Occ=1.000000D+00  E=-7.653604D+01

 Vector   39  Occ=0.000000D+00  E= 1.466220D+00

 Vector   40  Occ=0.000000D+00  E= 1.466220D+00

 Vector   41  Occ=0.000000D+00  E= 1.466220D+00

 Vector   42  Occ=0.000000D+00  E= 1.466220D+00

 Vector   43  Occ=0.000000D+00  E= 1.466220D+00

 Vector   44  Occ=0.000000D+00  E= 1.687921D+00

 Vector   45  Occ=0.000000D+00  E= 1.687921D+00

 Vector   46  Occ=0.000000D+00  E= 1.687921D+00

 Vector   47  Occ=0.000000D+00  E= 1.687921D+00

 Vector   48  Occ=0.000000D+00  E= 1.687921D+00

 Vector   49  Occ=0.000000D+00  E= 1.687921D+00

 Vector   50  Occ=0.000000D+00  E= 1.687921D+00

 Vector   51  Occ=0.000000D+00  E= 1.853246D+00

 Vector   52  Occ=0.000000D+00  E= 2.239843D+00

 Vector   53  Occ=0.000000D+00  E= 2.239843D+00

 Vector   54  Occ=0.000000D+00  E= 2.239843D+00

 Vector   55  Occ=0.000000D+00  E= 3.470637D+00

 Vector   56  Occ=0.000000D+00  E= 5.561519D+00

 Vector   57  Occ=0.000000D+00  E= 6.131796D+00

 Vector   58  Occ=0.000000D+00  E= 6.131796D+00

 Vector   59  Occ=0.000000D+00  E= 6.131796D+00

 Vector    1  Occ=1.000000D+00  E=-7.652538D+01

 Vector    2  Occ=1.000000D+00  E=-6.520084D+00

 Vector    3  Occ=1.000000D+00  E=-4.729655D+00

 Vector    4  Occ=1.000000D+00  E=-4.729655D+00

 Vector    5  Occ=1.000000D+00  E=-4.729655D+00

 Vector    6  Occ=1.000000D+00  E=-5.759346D-01

 Vector    7  Occ=0.000000D+00  E=-2.093936D-02

 Vector    8  Occ=0.000000D+00  E=-2.093936D-02

 Vector    9  Occ=0.000000D+00  E=-2.093936D-02

 Vector   10  Occ=0.000000D+00  E= 5.779488D-02

 Vector   11  Occ=0.000000D+00  E= 8.357820D-02

 Vector   12  Occ=0.000000D+00  E= 8.357820D-02

 Vector   13  Occ=0.000000D+00  E= 8.357820D-02

 Vector   14  Occ=0.000000D+00  E= 2.182678D-01

 Vector   15  Occ=0.000000D+00  E= 2.182678D-01

 Vector   16  Occ=0.000000D+00  E= 2.182678D-01

 Vector   17  Occ=0.000000D+00  E= 2.182678D-01

 Vector   18  Occ=0.000000D+00  E= 2.182678D-01

 Vector   19  Occ=0.000000D+00  E= 2.561139D-01

 Vector   20  Occ=0.000000D+00  E= 3.114200D-01

 Vector   21  Occ=0.000000D+00  E= 3.114200D-01

 Vector   22  Occ=0.000000D+00  E= 3.114200D-01

 Vector   23  Occ=0.000000D+00  E= 5.747273D-01

 Vector   24  Occ=0.000000D+00  E= 5.747273D-01

 Vector   25  Occ=0.000000D+00  E= 5.747273D-01

 Vector   26  Occ=0.000000D+00  E= 5.747273D-01

 Vector   27  Occ=0.000000D+00  E= 5.747273D-01

 Vector   28  Occ=0.000000D+00  E= 6.372163D-01

 Vector   29  Occ=0.000000D+00  E= 6.372163D-01

 Vector   30  Occ=0.000000D+00  E= 6.372163D-01

 Vector   31  Occ=0.000000D+00  E= 6.372163D-01

 Vector   32  Occ=0.000000D+00  E= 6.372163D-01

 Vector   33  Occ=0.000000D+00  E= 6.372163D-01

 Vector   34  Occ=0.000000D+00  E= 6.372163D-01

 Vector   35  Occ=0.000000D+00  E= 7.803706D-01

 Vector   36  Occ=0.000000D+00  E= 7.803706D-01

 Vector   37  Occ=0.000000D+00  E= 7.803706D-01

 Vector   38  Occ=0.000000D+00  E= 8.545523D-01

 Vector   39  Occ=0.000000D+00  E= 1.538236D+00

 Vector   40  Occ=0.000000D+00  E= 1.538236D+00

 Vector   41  Occ=0.000000D+00  E= 1.538236D+00

 Vector   42  Occ=0.000000D+00  E= 1.538236D+00

 Vector   43  Occ=0.000000D+00  E= 1.538236D+00

 Vector   44  Occ=0.000000D+00  E= 1.779700D+00

 Vector   45  Occ=0.000000D+00  E= 1.779700D+00

 Vector   46  Occ=0.000000D+00  E= 1.779700D+00

 Vector   47  Occ=0.000000D+00  E= 1.779700D+00

 Vector   48  Occ=0.000000D+00  E= 1.779700D+00

 Vector   49  Occ=0.000000D+00  E= 1.779700D+00

 Vector   50  Occ=0.000000D+00  E= 1.779700D+00

 Vector   51  Occ=0.000000D+00  E= 1.870529D+00

 Vector   52  Occ=0.000000D+00  E= 2.296207D+00

 Vector   53  Occ=0.000000D+00  E= 2.296207D+00

 Vector   54  Occ=0.000000D+00  E= 2.296207D+00

 Vector   55  Occ=0.000000D+00  E= 3.511812D+00

 Vector   56  Occ=0.000000D+00  E= 5.619274D+00

 Vector   57  Occ=0.000000D+00  E= 6.173866D+00

 Vector   58  Occ=0.000000D+00  E= 6.173866D+00

 Vector   59  Occ=0.000000D+00  E= 6.173866D+00

  Root   1         a              0.249628313 a.u.                6.7927 eV
     Dipole Oscillator Strength                    0.0970365910
  Root   2         a              0.249628313 a.u.                6.7927 eV
     Dipole Oscillator Strength                    0.0970365910
  Root   3         a              0.249628313 a.u.                6.7927 eV
     Dipole Oscillator Strength                    0.0970305134
  Root   4         a              0.265324283 a.u.                7.2198 eV
     Dipole Oscillator Strength                    0.0035724341
  Root   5         a              0.265324283 a.u.                7.2198 eV
     Dipole Oscillator Strength                    0.0035724341
 Total times  cpu:       30.4s     wall:       36.5s
