 Output coordinates in angstroms (scale by  1.889725989 to convert to a.u.)

  No.       Tag          Charge          X              Y              Z
 ---- ---------------- ---------- -------------- -------------- --------------
    1 P                   15.0000     0.00000000     0.00000000     0.00000000

         Total DFT energy =     -341.107866049979
         Total DFT energy =     -341.133984300354
         Total DFT energy =     -341.134895059839
         Total DFT energy =     -341.134975650512
         Total DFT energy =     -341.134990203326
         Total DFT energy =     -341.134990949159
         Total DFT energy =     -341.134990949159

                    DFT Final Alpha Molecular Orbital Analysis
                    ------------------------------------------

 Vector    1  Occ=1.000000D+00  E=-7.652964D+01

 Vector   39  Occ=0.000000D+00  E= 1.461731D+00

 Vector   40  Occ=0.000000D+00  E= 1.461731D+00

 Vector   41  Occ=0.000000D+00  E= 1.461731D+00

 Vector   42  Occ=0.000000D+00  E= 1.461731D+00

 Vector   43  Occ=0.000000D+00  E= 1.461731D+00

 Vector   44  Occ=0.000000D+00  E= 1.683375D+00

 Vector   45  Occ=0.000000D+00  E= 1.683375D+00

 Vector   46  Occ=0.000000D+00  E= 1.683375D+00

 Vector   47  Occ=0.000000D+00  E= 1.683375D+00

 Vector   48  Occ=0.000000D+00  E= 1.683375D+00

 Vector   49  Occ=0.000000D+00  E= 1.683375D+00

 Vector   50  Occ=0.000000D+00  E= 1.683375D+00

 Vector   51  Occ=0.000000D+00  E= 1.852083D+00

 Vector   52  Occ=0.000000D+00  E= 2.235015D+00

 Vector   53  Occ=0.000000D+00  E= 2.235015D+00

 Vector   54  Occ=0.000000D+00  E= 2.235015D+00

 Vector   55  Occ=0.000000D+00  E= 3.466541D+00

 Vector   56  Occ=0.000000D+00  E= 5.556549D+00

 Vector   57  Occ=0.000000D+00  E= 6.127734D+00

 Vector   58  Occ=0.000000D+00  E= 6.127734D+00

 Vector   59  Occ=0.000000D+00  E= 6.127734D+00

 Vector    1  Occ=1.000000D+00  E=-7.651898D+01

 Vector    2  Occ=1.000000D+00  E=-6.513456D+00

 Vector    3  Occ=1.000000D+00  E=-4.723433D+00

 Vector    4  Occ=1.000000D+00  E=-4.723433D+00

 Vector    5  Occ=1.000000D+00  E=-4.723433D+00

 Vector    6  Occ=1.000000D+00  E=-5.734996D-01

 Vector    7  Occ=0.000000D+00  E=-2.263645D-02

 Vector    8  Occ=0.000000D+00  E=-2.263645D-02

 Vector    9  Occ=0.000000D+00  E=-2.263645D-02

 Vector   10  Occ=0.000000D+00  E= 5.770204D-02

 Vector   11  Occ=0.000000D+00  E= 8.319807D-02

 Vector   12  Occ=0.000000D+00  E= 8.319807D-02

 Vector   13  Occ=0.000000D+00  E= 8.319807D-02

 Vector   14  Occ=0.000000D+00  E= 2.177105D-01

 Vector   15  Occ=0.000000D+00  E= 2.177105D-01

 Vector   16  Occ=0.000000D+00  E= 2.177105D-01

 Vector   17  Occ=0.000000D+00  E= 2.177105D-01

 Vector   18  Occ=0.000000D+00  E= 2.177105D-01

 Vector   19  Occ=0.000000D+00  E= 2.555844D-01

 Vector   20  Occ=0.000000D+00  E= 3.105581D-01

 Vector   21  Occ=0.000000D+00  E= 3.105581D-01

 Vector   22  Occ=0.000000D+00  E= 3.105581D-01

 Vector   23  Occ=0.000000D+00  E= 5.720809D-01

 Vector   24  Occ=0.000000D+00  E= 5.720809D-01

 Vector   25  Occ=0.000000D+00  E= 5.720809D-01

 Vector   26  Occ=0.000000D+00  E= 5.720809D-01

 Vector   27  Occ=0.000000D+00  E= 5.720809D-01

 Vector   28  Occ=0.000000D+00  E= 6.361363D-01

 Vector   29  Occ=0.000000D+00  E= 6.361363D-01

 Vector   30  Occ=0.000000D+00  E= 6.361363D-01

 Vector   31  Occ=0.000000D+00  E= 6.361363D-01

 Vector   32  Occ=0.000000D+00  E= 6.361363D-01

 Vector   33  Occ=0.000000D+00  E= 6.361363D-01

 Vector   34  Occ=0.000000D+00  E= 6.361363D-01

 Vector   35  Occ=0.000000D+00  E= 7.785103D-01

 Vector   36  Occ=0.000000D+00  E= 7.785103D-01

 Vector   37  Occ=0.000000D+00  E= 7.785103D-01

 Vector   38  Occ=0.000000D+00  E= 8.523814D-01

 Vector   39  Occ=0.000000D+00  E= 1.534156D+00

 Vector   40  Occ=0.000000D+00  E= 1.534156D+00

 Vector   41  Occ=0.000000D+00  E= 1.534156D+00

 Vector   42  Occ=0.000000D+00  E= 1.534156D+00

 Vector   43  Occ=0.000000D+00  E= 1.534156D+00

 Vector   44  Occ=0.000000D+00  E= 1.776098D+00

 Vector   45  Occ=0.000000D+00  E= 1.776098D+00

 Vector   46  Occ=0.000000D+00  E= 1.776098D+00

 Vector   47  Occ=0.000000D+00  E= 1.776098D+00

 Vector   48  Occ=0.000000D+00  E= 1.776098D+00

 Vector   49  Occ=0.000000D+00  E= 1.776098D+00

 Vector   50  Occ=0.000000D+00  E= 1.776098D+00

 Vector   51  Occ=0.000000D+00  E= 1.869876D+00

 Vector   52  Occ=0.000000D+00  E= 2.291707D+00

 Vector   53  Occ=0.000000D+00  E= 2.291707D+00

 Vector   54  Occ=0.000000D+00  E= 2.291707D+00

 Vector   55  Occ=0.000000D+00  E= 3.508309D+00

 Vector   56  Occ=0.000000D+00  E= 5.615096D+00

 Vector   57  Occ=0.000000D+00  E= 6.170534D+00

 Vector   58  Occ=0.000000D+00  E= 6.170534D+00

 Vector   59  Occ=0.000000D+00  E= 6.170534D+00

  Root   1         a              0.247905296 a.u.                6.7458 eV
     Dipole Oscillator Strength                    0.0960305455
  Root   2         a              0.247905296 a.u.                6.7458 eV
     Dipole Oscillator Strength                    0.0960305455
  Root   3         a              0.247905296 a.u.                6.7458 eV
     Dipole Oscillator Strength                    0.0960252919
  Root   4         a              0.265583579 a.u.                7.2269 eV
     Dipole Oscillator Strength                    0.0029377358
  Root   5         a              0.265583579 a.u.                7.2269 eV
     Dipole Oscillator Strength                    0.0029377358
 Total times  cpu:       25.8s     wall:       30.8s
