 Output coordinates in angstroms (scale by  1.889725989 to convert to a.u.)

  No.       Tag          Charge          X              Y              Z
 ---- ---------------- ---------- -------------- -------------- --------------
    1 S                   16.0000     0.00000000     0.00000000     0.00000000

         Total DFT energy =     -397.957384923612
         Total DFT energy =     -397.976074812604
         Total DFT energy =     -397.976900021824
         Total DFT energy =     -397.976982949421
         Total DFT energy =     -397.976998075621
         Total DFT energy =     -397.976998515829
         Total DFT energy =     -397.976998515829

                    DFT Final Alpha Molecular Orbital Analysis
                    ------------------------------------------

 Vector    1  Occ=1.000000D+00  E=-8.832508D+01

 Vector   39  Occ=0.000000D+00  E= 1.755638D+00

 Vector   40  Occ=0.000000D+00  E= 1.755638D+00

 Vector   41  Occ=0.000000D+00  E= 1.787251D+00

 Vector   42  Occ=0.000000D+00  E= 1.787251D+00

 Vector   43  Occ=0.000000D+00  E= 1.799401D+00

 Vector   44  Occ=0.000000D+00  E= 2.077712D+00

 Vector   45  Occ=0.000000D+00  E= 2.077712D+00

 Vector   46  Occ=0.000000D+00  E= 2.106910D+00

 Vector   47  Occ=0.000000D+00  E= 2.106910D+00

 Vector   48  Occ=0.000000D+00  E= 2.124830D+00

 Vector   49  Occ=0.000000D+00  E= 2.124830D+00

 Vector   50  Occ=0.000000D+00  E= 2.130834D+00

 Vector   51  Occ=0.000000D+00  E= 2.230649D+00

 Vector   52  Occ=0.000000D+00  E= 2.230649D+00

 Vector   53  Occ=0.000000D+00  E= 2.260547D+00

 Vector   54  Occ=0.000000D+00  E= 2.707593D+00

 Vector   55  Occ=0.000000D+00  E= 4.244026D+00

 Vector   56  Occ=0.000000D+00  E= 4.244026D+00

 Vector   57  Occ=0.000000D+00  E= 4.278362D+00

 Vector   58  Occ=0.000000D+00  E= 4.423043D+00

 Vector   59  Occ=0.000000D+00  E= 6.908798D+00

 Vector    1  Occ=1.000000D+00  E=-8.831616D+01

 Vector    2  Occ=1.000000D+00  E=-7.914785D+00

 Vector    3  Occ=1.000000D+00  E=-5.931902D+00

 Vector    4  Occ=1.000000D+00  E=-5.931902D+00

 Vector    5  Occ=1.000000D+00  E=-5.922380D+00

 Vector    6  Occ=1.000000D+00  E=-7.389197D-01

 Vector    7  Occ=1.000000D+00  E=-3.658692D-01

 Vector    8  Occ=0.000000D+00  E=-7.492604D-02

 Vector    9  Occ=0.000000D+00  E=-7.492604D-02

 Vector   10  Occ=0.000000D+00  E= 7.004327D-02

 Vector   11  Occ=0.000000D+00  E= 8.848035D-02

 Vector   12  Occ=0.000000D+00  E= 8.939273D-02

 Vector   13  Occ=0.000000D+00  E= 8.939273D-02

 Vector   14  Occ=0.000000D+00  E= 2.576857D-01

 Vector   15  Occ=0.000000D+00  E= 2.576857D-01

 Vector   16  Occ=0.000000D+00  E= 2.580342D-01

 Vector   17  Occ=0.000000D+00  E= 2.639649D-01

 Vector   18  Occ=0.000000D+00  E= 2.639649D-01

 Vector   19  Occ=0.000000D+00  E= 3.204668D-01

 Vector   20  Occ=0.000000D+00  E= 3.575032D-01

 Vector   21  Occ=0.000000D+00  E= 3.591880D-01

 Vector   22  Occ=0.000000D+00  E= 3.591880D-01

 Vector   23  Occ=0.000000D+00  E= 6.609861D-01

 Vector   24  Occ=0.000000D+00  E= 6.609861D-01

 Vector   25  Occ=0.000000D+00  E= 6.651269D-01

 Vector   26  Occ=0.000000D+00  E= 6.754739D-01

 Vector   27  Occ=0.000000D+00  E= 6.754739D-01

 Vector   28  Occ=0.000000D+00  E= 8.059821D-01

 Vector   29  Occ=0.000000D+00  E= 8.059821D-01

 Vector   30  Occ=0.000000D+00  E= 8.070751D-01

 Vector   31  Occ=0.000000D+00  E= 8.070751D-01

 Vector   32  Occ=0.000000D+00  E= 8.073399D-01

 Vector   33  Occ=0.000000D+00  E= 8.086862D-01

 Vector   34  Occ=0.000000D+00  E= 8.086862D-01

 Vector   35  Occ=0.000000D+00  E= 9.426332D-01

 Vector   36  Occ=0.000000D+00  E= 9.445029D-01

 Vector   37  Occ=0.000000D+00  E= 9.445029D-01

 Vector   38  Occ=0.000000D+00  E= 1.073704D+00

 Vector   39  Occ=0.000000D+00  E= 1.828849D+00

 Vector   40  Occ=0.000000D+00  E= 1.828849D+00

 Vector   41  Occ=0.000000D+00  E= 1.832508D+00

 Vector   42  Occ=0.000000D+00  E= 1.836099D+00

 Vector   43  Occ=0.000000D+00  E= 1.836099D+00

 Vector   44  Occ=0.000000D+00  E= 2.170645D+00

 Vector   45  Occ=0.000000D+00  E= 2.170645D+00

 Vector   46  Occ=0.000000D+00  E= 2.173061D+00

 Vector   47  Occ=0.000000D+00  E= 2.173800D+00

 Vector   48  Occ=0.000000D+00  E= 2.173800D+00

 Vector   49  Occ=0.000000D+00  E= 2.183313D+00

 Vector   50  Occ=0.000000D+00  E= 2.183313D+00

 Vector   51  Occ=0.000000D+00  E= 2.272453D+00

 Vector   52  Occ=0.000000D+00  E= 2.273175D+00

 Vector   53  Occ=0.000000D+00  E= 2.273175D+00

 Vector   54  Occ=0.000000D+00  E= 2.727402D+00

 Vector   55  Occ=0.000000D+00  E= 4.292463D+00

 Vector   56  Occ=0.000000D+00  E= 4.292703D+00

 Vector   57  Occ=0.000000D+00  E= 4.292703D+00

 Vector   58  Occ=0.000000D+00  E= 4.449061D+00

 Vector   59  Occ=0.000000D+00  E= 6.951797D+00

  Root   1         a              0.000258332 a.u.                0.0070 eV
     Dipole Oscillator Strength                    0.0000000000
  Root   2         a              0.000258380 a.u.                0.0070 eV
     Dipole Oscillator Strength                    0.0000000000
  Root   3         a              0.254810704 a.u.                6.9338 eV
     Dipole Oscillator Strength                    0.0378412430
  Root   4         a              0.275195097 a.u.                7.4884 eV
     Dipole Oscillator Strength                    0.1046079514
  Root   5         a              0.296423215 a.u.                8.0661 eV
     Dipole Oscillator Strength                    0.0000000000
 Total times  cpu:       28.8s     wall:       34.4s
