 Output coordinates in angstroms (scale by  1.889725989 to convert to a.u.)

  No.       Tag          Charge          X              Y              Z
 ---- ---------------- ---------- -------------- -------------- --------------
    1 S                   16.0000     0.00000000     0.00000000     0.00000000

         Total DFT energy =     -397.956164816158
         Total DFT energy =     -397.974720197534
         Total DFT energy =     -397.975544459185
         Total DFT energy =     -397.975627023120
         Total DFT energy =     -397.975641856320
         Total DFT energy =     -397.975642296568
         Total DFT energy =     -397.975642296568

                    DFT Final Alpha Molecular Orbital Analysis
                    ------------------------------------------

 Vector    1  Occ=1.000000D+00  E=-8.831931D+01

 Vector   39  Occ=0.000000D+00  E= 1.751366D+00

 Vector   40  Occ=0.000000D+00  E= 1.751366D+00

 Vector   41  Occ=0.000000D+00  E= 1.782930D+00

 Vector   42  Occ=0.000000D+00  E= 1.782930D+00

 Vector   43  Occ=0.000000D+00  E= 1.795068D+00

 Vector   44  Occ=0.000000D+00  E= 2.073346D+00

 Vector   45  Occ=0.000000D+00  E= 2.073346D+00

 Vector   46  Occ=0.000000D+00  E= 2.102510D+00

 Vector   47  Occ=0.000000D+00  E= 2.102510D+00

 Vector   48  Occ=0.000000D+00  E= 2.120415D+00

 Vector   49  Occ=0.000000D+00  E= 2.120415D+00

 Vector   50  Occ=0.000000D+00  E= 2.126414D+00

 Vector   51  Occ=0.000000D+00  E= 2.227363D+00

 Vector   52  Occ=0.000000D+00  E= 2.227363D+00

 Vector   53  Occ=0.000000D+00  E= 2.257226D+00

 Vector   54  Occ=0.000000D+00  E= 2.705900D+00

 Vector   55  Occ=0.000000D+00  E= 4.240555D+00

 Vector   56  Occ=0.000000D+00  E= 4.240555D+00

 Vector   57  Occ=0.000000D+00  E= 4.274850D+00

 Vector   58  Occ=0.000000D+00  E= 4.419712D+00

 Vector   59  Occ=0.000000D+00  E= 6.903862D+00

 Vector    1  Occ=1.000000D+00  E=-8.831038D+01

 Vector    2  Occ=1.000000D+00  E=-7.908786D+00

 Vector    3  Occ=1.000000D+00  E=-5.926221D+00

 Vector    4  Occ=1.000000D+00  E=-5.926221D+00

 Vector    5  Occ=1.000000D+00  E=-5.916727D+00

 Vector    6  Occ=1.000000D+00  E=-7.354769D-01

 Vector    7  Occ=1.000000D+00  E=-3.633103D-01

 Vector    8  Occ=0.000000D+00  E=-7.711027D-02

 Vector    9  Occ=0.000000D+00  E=-7.711027D-02

 Vector   10  Occ=0.000000D+00  E= 6.984308D-02

 Vector   11  Occ=0.000000D+00  E= 8.840886D-02

 Vector   12  Occ=0.000000D+00  E= 8.911562D-02

 Vector   13  Occ=0.000000D+00  E= 8.911562D-02

 Vector   14  Occ=0.000000D+00  E= 2.567631D-01

 Vector   15  Occ=0.000000D+00  E= 2.567631D-01

 Vector   16  Occ=0.000000D+00  E= 2.571918D-01

 Vector   17  Occ=0.000000D+00  E= 2.630782D-01

 Vector   18  Occ=0.000000D+00  E= 2.630782D-01

 Vector   19  Occ=0.000000D+00  E= 3.196565D-01

 Vector   20  Occ=0.000000D+00  E= 3.567811D-01

 Vector   21  Occ=0.000000D+00  E= 3.582520D-01

 Vector   22  Occ=0.000000D+00  E= 3.582520D-01

 Vector   23  Occ=0.000000D+00  E= 6.582218D-01

 Vector   24  Occ=0.000000D+00  E= 6.582218D-01

 Vector   25  Occ=0.000000D+00  E= 6.625114D-01

 Vector   26  Occ=0.000000D+00  E= 6.726864D-01

 Vector   27  Occ=0.000000D+00  E= 6.726864D-01

 Vector   28  Occ=0.000000D+00  E= 8.041902D-01

 Vector   29  Occ=0.000000D+00  E= 8.041902D-01

 Vector   30  Occ=0.000000D+00  E= 8.052150D-01

 Vector   31  Occ=0.000000D+00  E= 8.052150D-01

 Vector   32  Occ=0.000000D+00  E= 8.054325D-01

 Vector   33  Occ=0.000000D+00  E= 8.072273D-01

 Vector   34  Occ=0.000000D+00  E= 8.072273D-01

 Vector   35  Occ=0.000000D+00  E= 9.405983D-01

 Vector   36  Occ=0.000000D+00  E= 9.426029D-01

 Vector   37  Occ=0.000000D+00  E= 9.426029D-01

 Vector   38  Occ=0.000000D+00  E= 1.071261D+00

 Vector   39  Occ=0.000000D+00  E= 1.824653D+00

 Vector   40  Occ=0.000000D+00  E= 1.824653D+00

 Vector   41  Occ=0.000000D+00  E= 1.828305D+00

 Vector   42  Occ=0.000000D+00  E= 1.832222D+00

 Vector   43  Occ=0.000000D+00  E= 1.832222D+00

 Vector   44  Occ=0.000000D+00  E= 2.166644D+00

 Vector   45  Occ=0.000000D+00  E= 2.166644D+00

 Vector   46  Occ=0.000000D+00  E= 2.168913D+00

 Vector   47  Occ=0.000000D+00  E= 2.169706D+00

 Vector   48  Occ=0.000000D+00  E= 2.169706D+00

 Vector   49  Occ=0.000000D+00  E= 2.179794D+00

 Vector   50  Occ=0.000000D+00  E= 2.179794D+00

 Vector   51  Occ=0.000000D+00  E= 2.269179D+00

 Vector   52  Occ=0.000000D+00  E= 2.270218D+00

 Vector   53  Occ=0.000000D+00  E= 2.270218D+00

 Vector   54  Occ=0.000000D+00  E= 2.726012D+00

 Vector   55  Occ=0.000000D+00  E= 4.289026D+00

 Vector   56  Occ=0.000000D+00  E= 4.289733D+00

 Vector   57  Occ=0.000000D+00  E= 4.289733D+00

 Vector   58  Occ=0.000000D+00  E= 4.445993D+00

 Vector   59  Occ=0.000000D+00  E= 6.947216D+00

  Root   1         a              0.000253740 a.u.                0.0069 eV
     Dipole Oscillator Strength                    0.0000000000
  Root   2         a              0.000253771 a.u.                0.0069 eV
     Dipole Oscillator Strength                    0.0000000000
  Root   3         a              0.253228566 a.u.                6.8907 eV
     Dipole Oscillator Strength                    0.0378174444
  Root   4         a              0.273511484 a.u.                7.4426 eV
     Dipole Oscillator Strength                    0.1035656729
  Root   5         a              0.294629856 a.u.                8.0173 eV
     Dipole Oscillator Strength                    0.0000000000
 Total times  cpu:       21.8s     wall:       26.5s
