 Output coordinates in angstroms (scale by  1.889725989 to convert to a.u.)

  No.       Tag          Charge          X              Y              Z
 ---- ---------------- ---------- -------------- -------------- --------------
    1 Se                  34.0000     0.00000000     0.00000000     0.00000000

         Total DFT energy =    -2401.177817461396
         Total DFT energy =    -2401.200027571799
         Total DFT energy =    -2401.200760478805
         Total DFT energy =    -2401.200912592594
         Total DFT energy =    -2401.200927826681
         Total DFT energy =    -2401.200929158212
         Total DFT energy =    -2401.200929183189
         Total DFT energy =    -2401.200929183189

                    DFT Final Alpha Molecular Orbital Analysis
                    ------------------------------------------

 Vector    1  Occ=1.000000D+00  E=-4.523223D+02

 Vector   59  Occ=0.000000D+00  E= 1.728712D+00

 Vector   60  Occ=0.000000D+00  E= 1.739125D+00

 Vector   61  Occ=0.000000D+00  E= 1.751187D+00

 Vector   62  Occ=0.000000D+00  E= 1.751187D+00

 Vector   63  Occ=0.000000D+00  E= 1.777130D+00

 Vector   64  Occ=0.000000D+00  E= 3.432662D+00

 Vector   65  Occ=0.000000D+00  E= 3.432662D+00

 Vector   66  Occ=0.000000D+00  E= 3.467947D+00

 Vector   67  Occ=0.000000D+00  E= 3.648622D+00

 Vector   68  Occ=0.000000D+00  E= 7.229426D+00

 Vector   69  Occ=0.000000D+00  E= 7.443328D+01

 Vector    1  Occ=1.000000D+00  E=-4.523190D+02

 Vector    2  Occ=1.000000D+00  E=-5.761154D+01

 Vector    3  Occ=1.000000D+00  E=-5.176090D+01

 Vector    4  Occ=1.000000D+00  E=-5.176090D+01

 Vector    5  Occ=1.000000D+00  E=-5.175688D+01

 Vector    6  Occ=1.000000D+00  E=-7.732390D+00

 Vector    7  Occ=1.000000D+00  E=-5.722257D+00

 Vector    8  Occ=1.000000D+00  E=-5.722257D+00

 Vector    9  Occ=1.000000D+00  E=-5.707883D+00

 Vector   10  Occ=1.000000D+00  E=-2.157754D+00

 Vector   11  Occ=1.000000D+00  E=-2.157754D+00

 Vector   12  Occ=1.000000D+00  E=-2.147989D+00

 Vector   13  Occ=1.000000D+00  E=-2.147989D+00

 Vector   14  Occ=1.000000D+00  E=-2.144438D+00

 Vector   15  Occ=1.000000D+00  E=-7.056255D-01

 Vector   16  Occ=1.000000D+00  E=-3.287317D-01

 Vector   17  Occ=0.000000D+00  E=-8.403395D-02

 Vector   18  Occ=0.000000D+00  E=-8.403395D-02

 Vector   19  Occ=0.000000D+00  E= 5.164190D-02

 Vector   20  Occ=0.000000D+00  E= 7.481117D-02

 Vector   21  Occ=0.000000D+00  E= 7.481117D-02

 Vector   22  Occ=0.000000D+00  E= 7.548858D-02

 Vector   23  Occ=0.000000D+00  E= 2.131567D-01

 Vector   24  Occ=0.000000D+00  E= 2.131567D-01

 Vector   25  Occ=0.000000D+00  E= 2.134438D-01

 Vector   26  Occ=0.000000D+00  E= 2.179721D-01

 Vector   27  Occ=0.000000D+00  E= 2.179721D-01

 Vector   28  Occ=0.000000D+00  E= 2.383017D-01

 Vector   29  Occ=0.000000D+00  E= 3.028999D-01

 Vector   30  Occ=0.000000D+00  E= 3.028999D-01

 Vector   31  Occ=0.000000D+00  E= 3.031346D-01

 Vector   32  Occ=0.000000D+00  E= 5.876763D-01

 Vector   33  Occ=0.000000D+00  E= 5.876763D-01

 Vector   34  Occ=0.000000D+00  E= 5.904830D-01

 Vector   35  Occ=0.000000D+00  E= 6.000856D-01

 Vector   36  Occ=0.000000D+00  E= 6.000856D-01

 Vector   37  Occ=0.000000D+00  E= 6.710165D-01

 Vector   38  Occ=0.000000D+00  E= 6.710165D-01

 Vector   39  Occ=0.000000D+00  E= 6.714031D-01

 Vector   40  Occ=0.000000D+00  E= 6.714031D-01

 Vector   41  Occ=0.000000D+00  E= 6.715369D-01

 Vector   42  Occ=0.000000D+00  E= 6.751037D-01

 Vector   43  Occ=0.000000D+00  E= 6.751037D-01

 Vector   44  Occ=0.000000D+00  E= 7.552427D-01

 Vector   45  Occ=0.000000D+00  E= 7.943933D-01

 Vector   46  Occ=0.000000D+00  E= 7.943933D-01

 Vector   47  Occ=0.000000D+00  E= 7.953400D-01

 Vector   48  Occ=0.000000D+00  E= 1.338119D+00

 Vector   49  Occ=0.000000D+00  E= 1.713278D+00

 Vector   50  Occ=0.000000D+00  E= 1.713278D+00

 Vector   51  Occ=0.000000D+00  E= 1.714925D+00

 Vector   52  Occ=0.000000D+00  E= 1.714961D+00

 Vector   53  Occ=0.000000D+00  E= 1.714961D+00

 Vector   54  Occ=0.000000D+00  E= 1.723708D+00

 Vector   55  Occ=0.000000D+00  E= 1.723708D+00

 Vector   56  Occ=0.000000D+00  E= 1.764544D+00

 Vector   57  Occ=0.000000D+00  E= 1.764544D+00

 Vector   58  Occ=0.000000D+00  E= 1.767167D+00

 Vector   59  Occ=0.000000D+00  E= 1.767167D+00

 Vector   60  Occ=0.000000D+00  E= 1.767200D+00

 Vector   61  Occ=0.000000D+00  E= 1.788732D+00

 Vector   62  Occ=0.000000D+00  E= 1.788977D+00

 Vector   63  Occ=0.000000D+00  E= 1.788977D+00

 Vector   64  Occ=0.000000D+00  E= 3.483047D+00

 Vector   65  Occ=0.000000D+00  E= 3.483047D+00

 Vector   66  Occ=0.000000D+00  E= 3.483231D+00

 Vector   67  Occ=0.000000D+00  E= 3.680123D+00

 Vector   68  Occ=0.000000D+00  E= 7.269051D+00

 Vector   69  Occ=0.000000D+00  E= 7.443729D+01

  Root   1         a              0.000151030 a.u.                0.0041 eV
     Dipole Oscillator Strength                    0.0000000000
  Root   2         a              0.000151030 a.u.                0.0041 eV
     Dipole Oscillator Strength                    0.0000000000
  Root   3         a              0.220281465 a.u.                5.9942 eV
     Dipole Oscillator Strength                    0.0399252551
  Root   4         a              0.239186169 a.u.                6.5086 eV
     Dipole Oscillator Strength                    0.1025467015
  Root   5         a              0.263053662 a.u.                7.1581 eV
     Dipole Oscillator Strength                    0.0000000000
 Total times  cpu:       76.5s     wall:       89.0s
