 Output coordinates in angstroms (scale by  1.889725989 to convert to a.u.)

  No.       Tag          Charge          X              Y              Z
 ---- ---------------- ---------- -------------- -------------- --------------
    1 Se                  34.0000     0.00000000     0.00000000     0.00000000

         Total DFT energy =    -2401.179151401364
         Total DFT energy =    -2401.201444256591
         Total DFT energy =    -2401.202177048481
         Total DFT energy =    -2401.202329871142
         Total DFT energy =    -2401.202345470994
         Total DFT energy =    -2401.202346809125
         Total DFT energy =    -2401.202346834727
         Total DFT energy =    -2401.202346834727

                    DFT Final Alpha Molecular Orbital Analysis
                    ------------------------------------------

 Vector    1  Occ=1.000000D+00  E=-4.523260D+02

 Vector   59  Occ=0.000000D+00  E= 1.731690D+00

 Vector   60  Occ=0.000000D+00  E= 1.742113D+00

 Vector   61  Occ=0.000000D+00  E= 1.753235D+00

 Vector   62  Occ=0.000000D+00  E= 1.753235D+00

 Vector   63  Occ=0.000000D+00  E= 1.779204D+00

 Vector   64  Occ=0.000000D+00  E= 3.435430D+00

 Vector   65  Occ=0.000000D+00  E= 3.435430D+00

 Vector   66  Occ=0.000000D+00  E= 3.470746D+00

 Vector   67  Occ=0.000000D+00  E= 3.651854D+00

 Vector   68  Occ=0.000000D+00  E= 7.231692D+00

 Vector   69  Occ=0.000000D+00  E= 7.443743D+01

 Vector    1  Occ=1.000000D+00  E=-4.523227D+02

 Vector    2  Occ=1.000000D+00  E=-5.761527D+01

 Vector    3  Occ=1.000000D+00  E=-5.176461D+01

 Vector    4  Occ=1.000000D+00  E=-5.176461D+01

 Vector    5  Occ=1.000000D+00  E=-5.176058D+01

 Vector    6  Occ=1.000000D+00  E=-7.736238D+00

 Vector    7  Occ=1.000000D+00  E=-5.726088D+00

 Vector    8  Occ=1.000000D+00  E=-5.726088D+00

 Vector    9  Occ=1.000000D+00  E=-5.711685D+00

 Vector   10  Occ=1.000000D+00  E=-2.161298D+00

 Vector   11  Occ=1.000000D+00  E=-2.161298D+00

 Vector   12  Occ=1.000000D+00  E=-2.151518D+00

 Vector   13  Occ=1.000000D+00  E=-2.151518D+00

 Vector   14  Occ=1.000000D+00  E=-2.147965D+00

 Vector   15  Occ=1.000000D+00  E=-7.080399D-01

 Vector   16  Occ=1.000000D+00  E=-3.305776D-01

 Vector   17  Occ=0.000000D+00  E=-8.236385D-02

 Vector   18  Occ=0.000000D+00  E=-8.236385D-02

 Vector   19  Occ=0.000000D+00  E= 5.180931D-02

 Vector   20  Occ=0.000000D+00  E= 7.498235D-02

 Vector   21  Occ=0.000000D+00  E= 7.498235D-02

 Vector   22  Occ=0.000000D+00  E= 7.555673D-02

 Vector   23  Occ=0.000000D+00  E= 2.138525D-01

 Vector   24  Occ=0.000000D+00  E= 2.138525D-01

 Vector   25  Occ=0.000000D+00  E= 2.140956D-01

 Vector   26  Occ=0.000000D+00  E= 2.186188D-01

 Vector   27  Occ=0.000000D+00  E= 2.186188D-01

 Vector   28  Occ=0.000000D+00  E= 2.388816D-01

 Vector   29  Occ=0.000000D+00  E= 3.035422D-01

 Vector   30  Occ=0.000000D+00  E= 3.035422D-01

 Vector   31  Occ=0.000000D+00  E= 3.037072D-01

 Vector   32  Occ=0.000000D+00  E= 5.894572D-01

 Vector   33  Occ=0.000000D+00  E= 5.894572D-01

 Vector   34  Occ=0.000000D+00  E= 5.922143D-01

 Vector   35  Occ=0.000000D+00  E= 6.019395D-01

 Vector   36  Occ=0.000000D+00  E= 6.019395D-01

 Vector   37  Occ=0.000000D+00  E= 6.724629D-01

 Vector   38  Occ=0.000000D+00  E= 6.724629D-01

 Vector   39  Occ=0.000000D+00  E= 6.728947D-01

 Vector   40  Occ=0.000000D+00  E= 6.728948D-01

 Vector   41  Occ=0.000000D+00  E= 6.730615D-01

 Vector   42  Occ=0.000000D+00  E= 6.763213D-01

 Vector   43  Occ=0.000000D+00  E= 6.763214D-01

 Vector   44  Occ=0.000000D+00  E= 7.565575D-01

 Vector   45  Occ=0.000000D+00  E= 7.956581D-01

 Vector   46  Occ=0.000000D+00  E= 7.956581D-01

 Vector   47  Occ=0.000000D+00  E= 7.967231D-01

 Vector   48  Occ=0.000000D+00  E= 1.338902D+00

 Vector   49  Occ=0.000000D+00  E= 1.715924D+00

 Vector   50  Occ=0.000000D+00  E= 1.715924D+00

 Vector   51  Occ=0.000000D+00  E= 1.717673D+00

 Vector   52  Occ=0.000000D+00  E= 1.717703D+00

 Vector   53  Occ=0.000000D+00  E= 1.717703D+00

 Vector   54  Occ=0.000000D+00  E= 1.726195D+00

 Vector   55  Occ=0.000000D+00  E= 1.726195D+00

 Vector   56  Occ=0.000000D+00  E= 1.767464D+00

 Vector   57  Occ=0.000000D+00  E= 1.767464D+00

 Vector   58  Occ=0.000000D+00  E= 1.769957D+00

 Vector   59  Occ=0.000000D+00  E= 1.769957D+00

 Vector   60  Occ=0.000000D+00  E= 1.770137D+00

 Vector   61  Occ=0.000000D+00  E= 1.790753D+00

 Vector   62  Occ=0.000000D+00  E= 1.790760D+00

 Vector   63  Occ=0.000000D+00  E= 1.790760D+00

 Vector   64  Occ=0.000000D+00  E= 3.485506D+00

 Vector   65  Occ=0.000000D+00  E= 3.485506D+00

 Vector   66  Occ=0.000000D+00  E= 3.485962D+00

 Vector   67  Occ=0.000000D+00  E= 3.683177D+00

 Vector   68  Occ=0.000000D+00  E= 7.271010D+00

 Vector   69  Occ=0.000000D+00  E= 7.444143D+01

  Root   1         a              0.000153137 a.u.                0.0042 eV
     Dipole Oscillator Strength                    0.0000000000
  Root   2         a              0.000153138 a.u.                0.0042 eV
     Dipole Oscillator Strength                    0.0000000000
  Root   3         a              0.221321510 a.u.                6.0225 eV
     Dipole Oscillator Strength                    0.0399306674
  Root   4         a              0.240296095 a.u.                6.5388 eV
     Dipole Oscillator Strength                    0.1033921496
  Root   5         a              0.264466827 a.u.                7.1965 eV
     Dipole Oscillator Strength                    0.0000000000
 Total times  cpu:       84.9s     wall:       97.4s
